
                                 *****************
                                 * O   R   C   A *
                                 *****************

                                            #,                                       
                                            ###                                      
                                            ####                                     
                                            #####                                    
                                            ######                                   
                                           ########,                                 
                                     ,,################,,,,,                         
                               ,,#################################,,                 
                          ,,##########################################,,             
                       ,#########################################, ''#####,          
                    ,#############################################,,   '####,        
                  ,##################################################,,,,####,       
                ,###########''''           ''''###############################       
              ,#####''   ,,,,##########,,,,          '''####'''          '####       
            ,##' ,,,,###########################,,,                        '##       
           ' ,,###''''                  '''############,,,                           
         ,,##''                                '''############,,,,        ,,,,,,###''
      ,#''                                            '''#######################'''  
     '                                                          ''''####''''         
             ,#######,   #######,   ,#######,      ##                                
            ,#'     '#,  ##    ##  ,#'     '#,    #''#        ,####,   ,####,        
            ##       ##  ##   ,#'  ##            #'  '#       #'       #'  '#        
            ##       ##  #######   ##           ,######,      #####,   #    #        
            '#,     ,#'  ##    ##  '#,     ,#' ,#      #,     #,   #   #,  ,#        
             '#######'   ##     ##  '#######'  #'      '#     '####' # '####'        



                #########################################################
                #                        -***-                          #
                #          Department of theory and spectroscopy        #
                #                                                       #
                #                      Frank Neese                      #
                #                                                       #
                #     Directorship, Architecture, Infrastructure        #
                #                    SHARK, DRIVERS                     #
                #        Core code/Algorithms in most modules           #
                #                                                       #
                #        Max Planck Institute fuer Kohlenforschung      #
                #                Kaiser Wilhelm Platz 1                 #
                #                 D-45470 Muelheim/Ruhr                 #
                #                      Germany                          #
                #                                                       #
                #                  All rights reserved                  #
                #                        -***-                          #
                #########################################################


                         Program Version 6.0.0  -   RELEASE   -


 With contributions from (in alphabetic order):
   Daniel Aravena         : Magnetic Suceptibility
   Michael Atanasov       : Ab Initio Ligand Field Theory (pilot matlab implementation)
   Alexander A. Auer      : GIAO ZORA, VPT2 properties, NMR spectrum
   Ute Becker             : All parallelization in ORCA, NUMFREQ, NUMCALC
   Giovanni Bistoni       : ED, misc. LED, open-shell LED, HFLD
   Martin Brehm           : Molecular dynamics
   Dmytro Bykov           : pre 5.0 version of the SCF Hessian
   Marcos Casanova-Páez   : Triplet and SCS-CIS(D). UHF-(DLPNO)-IP/EA/STEOM-CCSD. UHF-CVS-IP/STEOM-CCSD
   Vijay G. Chilkuri      : MRCI spin determinant printing, contributions to CSF-ICE
   Pauline Colinet        : FMM embedding
   Dipayan Datta          : RHF DLPNO-CCSD density
   Achintya Kumar Dutta   : EOM-CC, STEOM-CC
   Nicolas Foglia         : Exact transition moments, OPA infrastructure, MCD improvements
   Dmitry Ganyushin       : Spin-Orbit,Spin-Spin,Magnetic field MRCI
   Miquel Garcia          : C-PCM and meta-GGA Hessian, CCSD/C-PCM, Gaussian charge scheme
   Tiago L. C. Gouveia    : GS-ROHF, GS-ROCIS
   Yang Guo               : DLPNO-NEVPT2, F12-NEVPT2, CIM, IAO-localization
   Andreas Hansen         : Spin unrestricted coupled pair/coupled cluster methods
   Ingolf Harden          : AUTO-CI MPn and infrastructure 
   Benjamin Helmich-Paris : MC-RPA, TRAH-(SCF,CASSCF), AVAS, COSX integrals, SCF dyn. polar.
   Lee Huntington         : MR-EOM, pCC
   Robert Izsak           : Overlap fitted RIJCOSX, COSX-SCS-MP3, EOM
   Riya Kayal             : Wick's Theorem for AUTO-CI, AUTO-CI UHF-CCSDT
   Emily Kempfer          : AUTO-CI, RHF CISDT and CCSDT
   Christian Kollmar      : KDIIS, OOCD, Brueckner-CCSD(T), CCSD density, CASPT2, CASPT2-K, improved NEVPT2
   Axel Koslowski         : Symmetry handling
   Simone Kossmann        : Meta GGA functionals, TD-DFT gradient, OOMP2, (MP2 Hessian; deprecated post 5.0)
   Lucas Lang             : DCDCAS
   Marvin Lechner         : AUTO-CI (C++ implementation), FIC-MRCC
   Spencer Leger          : CASSCF response
   Dagmar Lenk            : GEPOL surface, SMD, ORCA-2-JSON
   Dimitrios Liakos       : Extrapolation schemes; Compound Job, initial MDCI parallelization
   Dimitrios Manganas     : Further ROCIS development; embedding schemes. LFT, Crystal Embedding
   Dimitrios Pantazis     : SARC Basis sets
   Anastasios Papadopoulos: AUTO-CI, single reference methods and gradients
   Taras Petrenko         : pre 6.0 DFT Hessian and TD-DFT gradient, (ASA, deprecated), ECA, 1-Electron XAS/XES, NRVS
   Peter Pinski           : DLPNO-MP2, DLPNO-MP2 Gradient
   Christoph Reimann      : Effective Core Potentials
   Marius Retegan         : Local ZFS, SOC
   Christoph Riplinger    : Optimizer, TS searches, QM/MM, DLPNO-CCSD(T), (RO)-DLPNO pert. Triples
   Michael Roemelt        : Original ROCIS implementation
   Masaaki Saitow         : Open-shell DLPNO-CCSD energy and density
   Barbara Sandhoefer     : DKH picture change effects
   Kantharuban Sivalingam : CASSCF convergence/infrastructure, NEVPT2 and variants, FIC-MRCI
   Bernardo de Souza      : ESD, SOC TD-DFT
   Georgi Stoychev        : AutoAux, RI-MP2 NMR, DLPNO-MP2 response, X2C
   Van Anh Tran           : RI-MP2 g-tensors
   Willem Van den Heuvel  : Paramagnetic NMR
   Zikuan Wang            : NOTCH, Electric field optimization 
   Frank Wennmohs         : Technical directorship and infrastructure
   Hang Xu                : AUTO-CI-Response properties 


 We gratefully acknowledge several colleagues who have allowed us to
 interface, adapt or use parts of their codes:
   Stefan Grimme, W. Hujo, H. Kruse, P. Pracht,  : VdW corrections, initial TS optimization,
                  C. Bannwarth, S. Ehlert,         DFT functionals, gCP, sTDA/sTD-DF
                  L. Wittmann, M. Mueller
   Ed Valeev, F. Pavosevic, A. Kumar             : LibInt (2-el integral package), F12 methods
   Garnet Chan, S. Sharma, J. Yang, R. Olivares  : DMRG
   Ulf Ekstrom                                   : XCFun DFT Library
   Mihaly Kallay                                 : mrcc  (arbitrary order and MRCC methods)
   Frank Weinhold                                : gennbo (NPA and NBO analysis)
   Simon Mueller                                 : openCOSMO-RS
   Christopher J. Cramer and Donald G. Truhlar   : smd solvation model
   Lars Goerigk                                  : TD-DFT with DH, B97 family of functionals
   V. Asgeirsson, H. Jonsson                     : NEB implementation
   FAccTs GmbH                                   : IRC, NEB, NEB-TS, DLPNO-Multilevel, CI-OPT
                                                   MM, QMMM, 2- and 3-layer-ONIOM, Crystal-QMMM,
                                                   LR-CPCM, SF, NACMEs, symmetry and pop. for TD-DFT,
                                                   nearIR, NL-DFT gradient (VV10), updates on ESD,
                                                   ML-optimized integration grids, MBIS, APM,
                                                   GOAT, DOCKER, SOLVATOR, interface openCOSMO-RS
   S Lehtola, MJT Oliveira, MAL Marques          : LibXC Library
   Liviu Ungur et al                             : ANISO software


 Your calculation uses the libint2 library for the computation of 2-el integrals
 For citations please refer to: http://libint.valeyev.net

 Your ORCA version has been built with support for libXC version: 6.2.2
 For citations please refer to: https://libxc.gitlab.io

 This ORCA versions uses:
   CBLAS   interface :  Fast vector & matrix operations
   LAPACKE interface :  Fast linear algebra routines
   Shared memory     :  Shared parallel matrices


================================================================================

----- Orbital basis set information -----
Your calculation utilizes the basis: 3-21G
   H-Ne       : J. S. Binkley, J. A. Pople and W. J. Hehre, J. Am. Chem. Soc. 102 939 (1980).
   Na-Ar      : M. S. Gordon, J. S. Binkley, J. A. Pople, W. J. Pietro and W.J. Hehre, J. Am. Chem. Soc. 104, 2797 (1983).
   K-Ca, Ga-Kr: K. D. Dobbs and W. J. Hehre, J. Comput. Chem. 7, 359 (1986).
   Sc-Zn      : K. D. Dobbs and W. J. Hehre, J. Comput. Chem. 8, 861 (1987).
   Y-Cd       : K. D. Dobbs and W. J. Hehre, J. Comput. Chem. 8, 880 (1987).

================================================================================
                                        WARNINGS
                       Please study these warnings very carefully!
================================================================================


WARNING: your system is open-shell and RHF/RKS was chosen
  ===> : WILL SWITCH to UHF/UKS


WARNING: Geometry Optimization
  ===> : Switching off AutoStart
         For restart on a previous wavefunction, please use MOREAD

================================================================================
                                       INPUT FILE
================================================================================
NAME = C:\ORCA_6.0.0\TEMP\ORCA_Temp\orca.inp
|  1> # Jobname = ßkmda-acetal

|  2> ! Opt Freq RHF 

|  3> ! PrintBasis 3-21G 

|  4> ! CPCMC(Water)

|  5> ! KEEPDENS

|  6> %SCF PRINT[P_MOS] 1 END

|  7> * xyz  0 2

|  8> C          0.20185       -0.49288       -2.10484

|  9> C         -0.35627        0.68733       -2.61503

| 10> C         -0.80624        1.63588       -1.86812

| 11> C         -0.75193        1.53196       -0.47106

| 12> C         -0.20909        0.36759        0.09660

| 13> C          0.25370       -0.60803       -0.68535

| 14> C         -0.14901        0.21923        1.60815

| 15> C          0.11863        1.69162        1.87433

| 16> O         -1.45052       -0.39156        2.13798

| 17> C          1.41168        2.10341        1.18962

| 18> O          1.02832       -0.32776        2.41872

| 19> C         -1.35245       -1.91848        2.06310

| 20> C          1.04343       -1.75427        2.33260

| 21> C         -0.12829       -2.38237        2.85599

| 22> N          0.23868        1.91384        3.32247

| 23> O          0.64606       -1.42900       -2.95882

| 24> O         -0.27313        0.51748       -4.38551

| 25> C          0.51126       -1.14047       -4.43722

| 26> *

| 27> 
| 28>                          ****END OF INPUT****
================================================================================

                       *****************************
                       * Geometry Optimization Run *
                       *****************************

Geometry optimization settings:
Update method            Update   .... BFGS
Choice of coordinates    CoordSys .... (2022) Redundant Internals
Initial Hessian          InHess   .... Almloef's Model
Max. no of cycles        MaxIter  .... 54

Convergence Tolerances:
Energy Change            TolE     ....  5.0000e-06 Eh
Max. Gradient            TolMAXG  ....  3.0000e-04 Eh/bohr
RMS Gradient             TolRMSG  ....  1.0000e-04 Eh/bohr
Max. Displacement        TolMAXD  ....  4.0000e-03 bohr
RMS Displacement         TolRMSD  ....  2.0000e-03 bohr
Strict Convergence                .... False

------------------------------------------------------------------------------
                        ORCA OPTIMIZATION COORDINATE SETUP
------------------------------------------------------------------------------

The optimization will be done in redundant internal coordinates (2022)
Making redundant internal coordinates   ...  (2022 redundants) done
Evaluating the initial hessian          ...  (Almloef) done
Evaluating the coordinates              ...  done
Calculating the B-matrix                .... done
Calculating the G-matrix                .... done
Diagonalizing the G-matrix              .... done
Small eigenvalue found = 2.081e-02
The first mode is                       ....   40
The number of degrees of freedom        ....   48

    -----------------------------------------------------------------
                    Redundant Internal Coordinates


    -----------------------------------------------------------------
         Definition                    Initial Value    Approx d2E/dq
    -----------------------------------------------------------------
      1. B(C   1,C   0)                  1.4017         0.598570   
      2. B(C   2,C   1)                  1.2884         0.907320   
      3. B(C   3,C   2)                  1.4020         0.597913   
      4. B(C   4,C   3)                  1.4045         0.592347   
      5. B(C   5,C   0)                  1.4251         0.549218   
      6. B(C   5,C   4)                  1.3332         0.769733   
      7. B(C   6,C   4)                  1.5200         0.387552   
      8. B(C   7,C   6)                  1.5200         0.387547   
      9. B(O   8,C   6)                  1.5322         0.331868   
     10. B(C   9,C   7)                  1.5200         0.387564   
     11. B(O  10,C   6)                  1.5305         0.334018   
     12. B(C  11,O   8)                  1.5319         0.332267   
     13. B(C  12,O  10)                  1.4292         0.484568   
     14. B(C  13,C  12)                  1.4288         0.541862   
     15. B(C  13,C  11)                  1.5305         0.372887   
     16. B(N  14,C   7)                  1.4700         0.417099   
     17. B(O  15,C   0)                  1.3427         0.665719   
     18. B(O  16,C   1)                  1.7806         0.133284   
     19. B(C  17,O  16)                  1.8349         0.109174   
     20. B(C  17,O  15)                  1.5123         0.357055   
     21. A(C   1,C   0,C   5)          116.4282         0.422065   
     22. A(C   1,C   0,O  15)          119.1604         0.434024   
     23. A(C   5,C   0,O  15)          124.4114         0.427370   
     24. A(C   0,C   1,C   2)          123.2254         0.462142   
     25. A(C   2,C   1,O  16)          131.5255         0.352413   
     26. A(C   0,C   1,O  16)          105.2491         0.328745   
     27. A(C   1,C   2,C   3)          120.6351         0.462049   
     28. A(C   2,C   3,C   4)          118.6314         0.427728   
     29. A(C   3,C   4,C   6)          119.8752         0.396065   
     30. A(C   3,C   4,C   5)          120.2498         0.447659   
     31. A(C   5,C   4,C   6)          119.8749         0.414821   
     32. A(C   0,C   5,C   4)          120.8271         0.441574   
     33. A(O   8,C   6,O  10)          109.1366         0.345149   
     34. A(C   7,C   6,O  10)           96.7772         0.356502   
     35. A(C   4,C   6,O  10)          126.2968         0.356503   
     36. A(C   7,C   6,O   8)          118.3693         0.356111   
     37. A(C   4,C   6,O   8)          110.4385         0.356112   
     38. A(C   4,C   6,C   7)           94.9655         0.367951   
     39. A(C   6,C   7,C   9)          109.4712         0.367953   
     40. A(C   9,C   7,N  14)          109.4718         0.370297   
     41. A(C   6,C   7,N  14)          109.4709         0.370294   
     42. A(C   6,O   8,C  11)          109.0294         0.344844   
     43. A(C   6,O  10,C  12)          109.4479         0.368061   
     44. A(O   8,C  11,C  13)          109.1470         0.353862   
     45. A(O  10,C  12,C  13)          114.0819         0.402939   
     46. A(C  11,C  13,C  12)          109.4463         0.387320   
     47. A(C   0,O  15,C  17)          117.3381         0.393422   
     48. A(C   1,O  16,C  17)           97.7111         0.250770   
     49. A(O  15,C  17,O  16)          100.5414         0.291191   
     50. D(C   2,C   1,C   0,O  15)    179.9998         0.024693   
     51. D(O  16,C   1,C   0,O  15)     -0.0178         0.024693   
     52. D(C   2,C   1,C   0,C   5)      0.0383         0.024693   
     53. D(O  16,C   1,C   0,C   5)   -179.9793         0.024693   
     54. D(C   3,C   2,C   1,O  16)   -179.6852         0.055374   
     55. D(C   3,C   2,C   1,C   0)      0.2921         0.055374   
     56. D(C   4,C   3,C   2,C   1)     -0.6100         0.019862   
     57. D(C   6,C   4,C   3,C   2)   -179.3946         0.021920   
     58. D(C   5,C   4,C   3,C   2)      0.6057         0.021920   
     59. D(C   0,C   5,C   4,C   6)    179.7129         0.038427   
     60. D(C   0,C   5,C   4,C   3)     -0.2874         0.038427   
     61. D(C   4,C   5,C   0,O  15)   -179.9985         0.018744   
     62. D(C   4,C   5,C   0,C   1)     -0.0393         0.018744   
     63. D(C   7,C   6,C   4,C   5)    144.9652         0.011182   
     64. D(C   7,C   6,C   4,C   3)    -35.0345         0.011182   
     65. D(O  10,C   6,C   4,C   3)   -137.2028         0.011182   
     66. D(O   8,C   6,C   4,C   5)    -92.2583         0.011182   
     67. D(O   8,C   6,C   4,C   3)     87.7420         0.011182   
     68. D(N  14,C   7,C   6,C   4)    179.9995         0.011182   
     69. D(C   9,C   7,C   6,O  10)     67.4958         0.011182   
     70. D(C   9,C   7,C   6,O   8)   -176.4411         0.011182   
     71. D(N  14,C   7,C   6,O   8)     63.5584         0.011182   
     72. D(C   9,C   7,C   6,C   4)    -60.0000         0.011182   
     73. D(C  11,O   8,C   6,O  10)    -56.9952         0.008901   
     74. D(C  11,O   8,C   6,C   7)   -166.2240         0.008901   
     75. D(C  11,O   8,C   6,C   4)     85.9445         0.008901   
     76. D(C  12,O  10,C   6,O   8)     57.6092         0.009006   
     77. D(C  12,O  10,C   6,C   7)   -179.1800         0.009006   
     78. D(C  12,O  10,C   6,C   4)    -77.9097         0.009006   
     79. D(C  13,C  11,O   8,C   6)     57.0005         0.007389   
     80. D(C  13,C  12,O  10,C   6)    -61.1343         0.015017   
     81. D(C  11,C  13,C  12,O  10)     61.1330         0.016235   
     82. D(C  12,C  13,C  11,O   8)    -57.6258         0.007970   
     83. D(C  17,O  15,C   0,C   5)    179.9586         0.032885   
     84. D(C  17,O  15,C   0,C   1)      0.0004         0.032885   
     85. D(C  17,O  16,C   1,C   2)   -179.9961         0.002460   
     86. D(C  17,O  16,C   1,C   0)      0.0236         0.002460   
     87. D(O  15,C  17,O  16,C   1)     -0.0222         0.002060   
     88. D(O  16,C  17,O  15,C   0)      0.0164         0.008390   
    -----------------------------------------------------------------

Number of atoms                         .... 18
Number of degrees of freedom            .... 88


         *************************************************************
         *                GEOMETRY OPTIMIZATION CYCLE   1            *
         *************************************************************
---------------------------------
CARTESIAN COORDINATES (ANGSTROEM)
---------------------------------
  C      0.201850   -0.492880   -2.104840
  C     -0.356270    0.687330   -2.615030
  C     -0.806240    1.635880   -1.868120
  C     -0.751930    1.531960   -0.471060
  C     -0.209090    0.367590    0.096600
  C      0.253700   -0.608030   -0.685350
  C     -0.149010    0.219230    1.608150
  C      0.118630    1.691620    1.874330
  O     -1.450520   -0.391560    2.137980
  C      1.411680    2.103410    1.189620
  O      1.028320   -0.327760    2.418720
  C     -1.352450   -1.918480    2.063100
  C      1.043430   -1.754270    2.332600
  C     -0.128290   -2.382370    2.855990
  N      0.238680    1.913840    3.322470
  O      0.646060   -1.429000   -2.958820
  O     -0.273130    0.517480   -4.385510
  C      0.511260   -1.140470   -4.437220

----------------------------
CARTESIAN COORDINATES (A.U.)
----------------------------
  NO LB      ZA    FRAG     MASS         X           Y           Z
   0 C     6.0000    0    12.011    0.381441   -0.931408   -3.977571
   1 C     6.0000    0    12.011   -0.673253    1.298865   -4.941691
   2 C     6.0000    0    12.011   -1.523573    3.091365   -3.530235
   3 C     6.0000    0    12.011   -1.420942    2.894985   -0.890174
   4 C     6.0000    0    12.011   -0.395123    0.694644    0.182548
   5 C     6.0000    0    12.011    0.479424   -1.149010   -1.295124
   6 C     6.0000    0    12.011   -0.281588    0.414285    3.038963
   7 C     6.0000    0    12.011    0.224178    3.196699    3.541970
   8 O     8.0000    0    15.999   -2.741086   -0.739941    4.040197
   9 C     6.0000    0    12.011    2.667689    3.974869    2.248056
  10 O     8.0000    0    15.999    1.943243   -0.619377    4.570718
  11 C     6.0000    0    12.011   -2.555760   -3.625402    3.898694
  12 C     6.0000    0    12.011    1.971797   -3.315090    4.407975
  13 C     6.0000    0    12.011   -0.242433   -4.502027    5.397039
  14 N     7.0000    0    14.007    0.451040    3.616633    6.278558
  15 O     8.0000    0    15.999    1.220876   -2.700419   -5.591359
  16 O     8.0000    0    15.999   -0.516141    0.977895   -8.287413
  17 C     6.0000    0    12.011    0.966141   -2.155176   -8.385131

--------------------------------
INTERNAL COORDINATES (ANGSTROEM)
--------------------------------
 C      0   0   0     0.000000000000     0.00000000     0.00000000
 C      1   0   0     1.401673076933     0.00000000     0.00000000
 C      2   1   0     1.288446604055   123.22543328     0.00000000
 C      3   2   1     1.401972034707   120.63507839     0.29211723
 C      4   3   2     1.404517937977   118.63143488   359.38998537
 C      5   4   3     1.333212200289   120.24981480     0.60569633
 C      5   4   3     1.520001216611   119.87524296   180.60538321
 C      7   5   4     1.520005024367    94.96552201   324.96551619
 O      7   5   4     1.532224700591   110.43853873    87.74199762
 C      8   7   5     1.519992464027   109.47119989   299.99995613
 O      7   5   4     1.530466502051   126.29681472   222.79716908
 C      9   7   5     1.531897328707   109.02937117    85.94451510
 C     11   7   5     1.429187092931   109.44794578   282.09025504
 C     13  11   7     1.428766762106   114.08190553   298.86568558
 N      8   7   5     1.470001085204   109.47088287   179.99949427
 O      1   2   3     1.342730434190   119.16035590   179.99977558
 O      2   1   3     1.780550676757   105.24905501   179.98239307
 C     16   1   2     1.512311859670   117.33809613     0.00000000

---------------------------
INTERNAL COORDINATES (A.U.)
---------------------------
 C      0   0   0     0.000000000000     0.00000000     0.00000000
 C      1   0   0     2.648778244695     0.00000000     0.00000000
 C      2   1   0     2.434811219844   123.22543328     0.00000000
 C      3   2   1     2.649343193012   120.63507839     0.29211723
 C      4   3   2     2.654154252957   118.63143488   359.38998537
 C      5   4   3     2.519405936949   120.24981480     0.60569633
 C      5   4   3     2.872386022623   119.87524296   180.60538321
 C      7   5   4     2.872393218237    94.96552201   324.96551619
 O      7   5   4     2.895485059746   110.43853873    87.74199762
 C      8   7   5     2.872369482636   109.47119989   299.99995613
 O      7   5   4     2.892162546017   126.29681472   222.79716908
 C      9   7   5     2.894866416542   109.02937117    85.94451510
 C     11   7   5     2.700772199774   109.44794578   282.09025504
 C     13  11   7     2.699977889631   114.08190553   298.86568558
 N      8   7   5     2.777899467602   109.47088287   179.99949427
 O      1   2   3     2.537392792300   119.16035590   179.99977558
 O      2   1   3     3.364753146639   105.24905501   179.98239307
 C     16   1   2     2.857855243858   117.33809613     0.00000000

---------------------
BASIS SET INFORMATION
---------------------
There are 3 groups of distinct atoms

 Group   1 Type C   : 6s3p contracted to 3s2p pattern {321/21}
 Group   2 Type O   : 6s3p contracted to 3s2p pattern {321/21}
 Group   3 Type N   : 6s3p contracted to 3s2p pattern {321/21}

Atom   0C    basis set group =>   1
Atom   1C    basis set group =>   1
Atom   2C    basis set group =>   1
Atom   3C    basis set group =>   1
Atom   4C    basis set group =>   1
Atom   5C    basis set group =>   1
Atom   6C    basis set group =>   1
Atom   7C    basis set group =>   1
Atom   8O    basis set group =>   2
Atom   9C    basis set group =>   1
Atom  10O    basis set group =>   2
Atom  11C    basis set group =>   1
Atom  12C    basis set group =>   1
Atom  13C    basis set group =>   1
Atom  14N    basis set group =>   3
Atom  15O    basis set group =>   2
Atom  16O    basis set group =>   2
Atom  17C    basis set group =>   1

-------------------------
BASIS SET IN INPUT FORMAT
-------------------------

 # Basis set for element : C 
 NewGTO C 
 S 3 
   1     172.2560000000      0.0617669074
   2      25.9109000000      0.3587940429
   3       5.5333500000      0.7007130837
 S 2 
   1       3.6649800000     -0.3958951621
   2       0.7705450000      1.2158343557
 P 2 
   1       3.6649800000      0.2364599466
   2       0.7705450000      0.8606188057
 S 1 
   1       0.1958570000      1.0000000000
 P 1 
   1       0.1958570000      1.0000000000
  end;

 # Basis set for element : N 
 NewGTO N 
 S 3 
   1     242.7660000000      0.0598657005
   2      36.4851000000      0.3529550030
   3       7.8144900000      0.7065130060
 S 2 
   1       5.4252200000     -0.4133000774
   2       1.1491500000      1.2244172669
 P 2 
   1       5.4252200000      0.2379720162
   2       1.1491500000      0.8589530586
 S 1 
   1       0.2832050000      1.0000000000
 P 1 
   1       0.2832050000      1.0000000000
  end;

 # Basis set for element : O 
 NewGTO O 
 S 3 
   1     322.0370000000      0.0592393934
   2      48.4308000000      0.3514999608
   3      10.4206000000      0.7076579210
 S 2 
   1       7.4029400000     -0.4044535832
   2       1.5762000000      1.2215617614
 P 2 
   1       7.4029400000      0.2445861070
   2       1.5762000000      0.8539553735
 S 1 
   1       0.3736840000      1.0000000000
 P 1 
   1       0.3736840000      1.0000000000
  end;

------------------------------------------------------------------------------
                             ORCA STARTUP CALCULATIONS
------------------------------------------------------------------------------
------------------------------------------------------------------------------
                   ___                                                        
                  /   \      - P O W E R E D   B Y -                         
                 /     \                                                     
                 |  |  |   _    _      __       _____    __    __             
                 |  |  |  | |  | |    /  \     |  _  \  |  |  /  |          
                  \  \/   | |  | |   /    \    | | | |  |  | /  /          
                 / \  \   | |__| |  /  /\  \   | |_| |  |  |/  /          
                |  |  |   |  __  | /  /__\  \  |    /   |      \           
                |  |  |   | |  | | |   __   |  |    \   |  |\   \          
                \     /   | |  | | |  |  |  |  | |\  \  |  | \   \       
                 \___/    |_|  |_| |__|  |__|  |_| \__\ |__|  \__/        
                                                                              
                      - O R C A' S   B I G   F R I E N D -                    
                                      &                                       
                       - I N T E G R A L  F E E D E R -                       
                                                                              
 v1 FN, 2020, v2 2021, v3 2022-2024                                           
------------------------------------------------------------------------------


----------------------
SHARK INTEGRAL PACKAGE
----------------------

Number of atoms                             ...     18
Number of basis functions                   ...    162
Number of shells                            ...     90
Maximum angular momentum                    ...      1
Integral batch strategy                     ... SHARK/LIBINT Hybrid
RI-J (if used) integral strategy            ... SPLIT-RIJ (Revised 2003 algorithm where possible)
Printlevel                                  ...      1
Contraction scheme used                     ... SEGMENTED contraction
Prescreening option                         ... SCHWARTZ
   Thresh                                   ... 2.500e-11
   Tcut                                     ... 2.500e-12
   Tpresel                                  ... 2.500e-12 
Coulomb Range Separation                    ... NOT USED
Exchange Range Separation                   ... NOT USED
Multipole approximations                    ... NOT USED
Finite Nucleus Model                        ... NOT USED
CABS basis                                  ... NOT available
Auxiliary Coulomb fitting basis             ... NOT available
Auxiliary J/K fitting basis                 ... NOT available
Auxiliary Correlation fitting basis         ... NOT available
Auxiliary 'external' fitting basis          ... NOT available

Checking pre-screening integrals            ... done (  0.0 sec) Dimension = 90
Check shell pair data                       ... done (  0.0 sec)
Shell pair information
Shell pair cut-off parameter TPreSel        ...   2.5e-12
Total number of shell pairs                 ...      4095
Shell pairs after pre-screening             ...      3079
Total number of primitive shell pairs       ...     13293
Primitive shell pairs kept                  ...      6952
          la=0 lb=0:    984 shell pairs
          la=1 lb=0:   1516 shell pairs
          la=1 lb=1:    579 shell pairs

Calculating one electron integrals          ... done (  0.0 sec)
Calculating Nuclear repulsion               ... done (  0.0 sec) ENN=   1085.662861514216 Eh

Diagonalization of the overlap matrix:
Smallest eigenvalue                        ... 2.531e-03
Time for diagonalization                   ...    0.007 sec
Threshold for overlap eigenvalues          ... 1.000e-07
Number of eigenvalues below threshold      ... 0
Time for construction of square roots      ...    0.002 sec
Total time needed                          ...    0.013 sec

-------------------
DFT GRID GENERATION
-------------------

General Integration Accuracy     IntAcc      ... 4.388
Radial Grid Type                 RadialGrid  ... OptM3 with GC (2021)
Angular Grid (max. ang.)         AngularGrid ... 4 (Lebedev-302)
Angular grid pruning method      GridPruning ... 4 (adaptive)
Weight generation scheme         WeightScheme... mBecke (2022)
Basis function cutoff            BFCut       ... 1.0000e-11
Integration weight cutoff        WCut        ... 1.0000e-14
Partially contracted basis set               ... off
Rotationally invariant grid construction     ... off
Angular grids for H and He will be reduced by one unit

Total number of grid points                  ...   108496
Total number of batches                      ...     1705
Average number of points per batch           ...       63
Average number of grid points per atom       ...     6028
Initializing property integral containers    ... done (  0.0 sec)

SHARK setup successfully completed in   1.0 seconds

Maximum memory used throughout the entire STARTUP-calculation: 36.0 MB
-------------------------------------------------------------------------------
                                 ORCA GUESS
                   Start orbitals & Density for SCF / CASSCF
-------------------------------------------------------------------------------

------------
SCF SETTINGS
------------
Hamiltonian:
 Ab initio Hamiltonian  Method          .... Hartree-Fock(GTOs)


General Settings:
 Integral files         IntName         .... C:\ORCA_6.0.0\TEMP\ORCA_Temp\orca
 Hartree-Fock type      HFTyp           .... UHF
 Total Charge           Charge          ....    0
 Multiplicity           Mult            ....    2
 Number of Electrons    NEL             ....  117
 Basis Dimension        Dim             ....  162
 Nuclear Repulsion      ENuc            ....   1085.6628615142 Eh

Convergence Acceleration:
 AO-DIIS                CNVDIIS         .... on
   Start iteration      DIISMaxIt       ....    12
   Startup error        DIISStart       ....  0.200000
   # of expansion vecs  DIISMaxEq       ....     5
   Bias factor          DIISBfac        ....   1.050
   Max. coefficient     DIISMaxC        ....  10.000
 MO-DIIS                CNVKDIIS        .... off
 Trust-Rad. Augm. Hess. CNVTRAH         .... auto
   Auto Start mean grad. ratio tolernc. ....  1.125000
   Auto Start start iteration           ....    50
   Auto Start num. interpolation iter.  ....    10
   Max. Number of Micro iterations      ....    24
   Max. Number of Macro iterations      .... Maxiter - #DIIS iter
   Number of Davidson start vectors     ....     2
   Converg. threshold    (grad. norm)   ....   1.000e-05
   Grad. Scal. Fac. for Micro threshold ....   0.100
   Minimum threshold for Micro iter.    ....   1.000e-02
   NR start threshold (gradient norm)   ....   1.000e-04
   Initial trust radius                 ....   0.400
   Minimum AH scaling param. (alpha)    ....   1.000
   Maximum AH scaling param. (alpha)    .... 1000.000
   Quad. conv. algorithm                .... NR
   White noise on init. David. guess    .... on
   Maximum white noise                  ....   0.010
   Pseudo random numbers                .... off
   Inactive MOs                         .... canonical
   Orbital update algorithm             .... Taylor
   Preconditioner                       .... Diag
   Full preconditioner red. dimension   ....   250
 SOSCF                  CNVSOSCF        .... on
   Start iteration      SOSCFMaxIt      ....   150
   Startup grad/error   SOSCFStart      ....  0.003300
   Hessian update       SOSCFHessUp     .... L-BFGS
 Level Shifting         CNVShift        .... on
   Level shift para.    LevelShift      ....    0.2500
   Turn off err/grad.   ShiftErr        ....    0.0010
 Zerner damping         CNVZerner       .... off
 Static damping         CNVDamp         .... on
   Fraction old density DampFac         ....    0.7000
   Max. Damping (<1)    DampMax         ....    0.9800
   Min. Damping (>=0)   DampMin         ....    0.0000
   Turn off err/grad.   DampErr         ....    0.1000

SCF Procedure:
 Maximum # iterations   MaxIter         ....   125
 SCF integral mode      SCFMode         .... Direct
   Integral package                     .... SHARK and LIBINT hybrid scheme
 Reset frequency        DirectResetFreq ....    20
 Integral Threshold     Thresh          ....  2.500e-11 Eh
 Primitive CutOff       TCut            ....  2.500e-12 Eh

Convergence Tolerance:
 Convergence Check Mode ConvCheckMode   .... Total+1el-Energy
 Convergence forced     ConvForced      .... 0
 Energy Change          TolE            ....  1.000e-08 Eh
 1-El. energy change                    ....  1.000e-05 Eh
 Orbital Gradient       TolG            ....  1.000e-05
 Orbital Rotation angle TolX            ....  1.000e-05
 DIIS Error             TolErr          ....  5.000e-07

------------------------------
INITIAL GUESS: MODEL POTENTIAL
------------------------------
Loading Hartree-Fock densities                     ... done
Calculating cut-offs                               ... done
Initializing the effective Hamiltonian             ... done
Setting up the integral package (SHARK)            ... done
Starting the Coulomb interaction                   ... done (   0.2 sec)
Making the grid                                    ... done (   0.3 sec)
Mapping shells                                     ... done
Starting the XC term evaluation                    ... done (   0.1 sec)
Transforming the Hamiltonian                       ... done (   0.0 sec)
Diagonalizing the Hamiltonian                      ... done (   0.0 sec)
Back transforming the eigenvectors                 ... done (   0.0 sec)
Now organizing SCF variables                       ... done
                      ------------------
                      INITIAL GUESS DONE (   0.7 sec)
                      ------------------
             **** ENERGY FILE WAS UPDATED (C:\ORCA_6.0.0\TEMP\ORCA_Temp\orca.en.tmp) ****
Finished Guess after   0.8 sec
Maximum memory used throughout the entire GUESS-calculation: 16.2 MB

-------------------------------------------------------------------------------------------
                                      ORCA LEAN-SCF
                              memory conserving SCF solver
-------------------------------------------------------------------------------------------

--------------------
CPCM SOLVATION MODEL
--------------------
CPCM parameters:
  Epsilon                                         ...      80.1510
  Refrac                                          ...       1.3328
  Rsolv                                           ...       1.3000
  Surface type                                    ... GAUSSIAN VDW
  Discretization scheme                           ... Constant charge density
    Threshold for H atoms                         ...       5.0000 (charges/Ang^2)
    Threshold for non-H atoms                     ...       5.0000 (charges/Ang^2)
  Epsilon function type                           ...        COSMO
Solvent:                                          ... WATER
Radii:
  Scheme                                          ... Element-dependent radii
  Radius for C  used is    3.8550 Bohr (=   2.0400 Ang.)
  Radius for O  used is    3.4469 Bohr (=   1.8240 Ang.)
  Radius for N  used is    3.5149 Bohr (=   1.8600 Ang.)
Calculating surface                               ...        done! (  0.0s)
Cavity surface points                             ...         2079
Cavity Volume                                     ...    1859.3280
Cavity Surface-area                               ...     937.4304
Calculating surface distance matrix               ...        done! (  0.1s)
Performing Cholesky decomposition & store         ...        done! (  0.1s)
Overall time for CPCM initialization              ...                 0.2s

----------------------------------------D-I-I-S--------------------------------------------
Iteration    Energy (Eh)           Delta-E    RMSDP     MaxDP     DIISErr   Damp  Time(sec)
-------------------------------------------------------------------------------------------
               ***  Starting incremental Fock matrix formation  ***
    1    -839.5962291324378839     0.00e+00  1.74e-03  4.80e-02  1.12e-01  0.700   2.5
Warning: op=1 Small HOMO/LUMO gap (   0.081) - skipping pre-diagonalization
         Will do a full diagonalization
    2    -839.7513213977435953    -1.55e-01  1.47e-03  4.24e-02  6.54e-02  0.700   2.2
                               ***Turning on AO-DIIS***
    3    -839.8467701805620891    -9.54e-02  9.32e-04  2.48e-02  4.54e-02  0.700   2.1
    4    -839.9120531152525473    -6.53e-02  2.37e-03  4.88e-02  3.21e-02  0.000   2.0
    5    -840.0891165151217592    -1.77e-01  6.68e-04  1.25e-02  1.34e-02  0.000   2.1
    6    -840.1035603788018307    -1.44e-02  7.20e-04  1.43e-02  1.09e-02  0.000   2.1
    7    -840.1163989440492514    -1.28e-02  7.97e-04  1.54e-02  1.01e-02  0.000   2.2
    8    -840.1283541910256645    -1.20e-02  6.30e-04  1.26e-02  8.85e-03  0.000   2.0
    9    -840.1360327581073761    -7.68e-03  5.23e-04  1.48e-02  7.96e-03  0.000   2.0
   10    -840.1416940982346659    -5.66e-03  3.86e-04  1.23e-02  9.63e-03  0.000   2.0
   11    -840.1457131245847449    -4.02e-03  1.85e-04  5.74e-03  1.11e-02  0.000   2.0
   12    -840.1476170263972563    -1.90e-03  4.35e-05  1.30e-03  1.20e-02  0.000   2.0
   13    -840.1479004921900469    -2.83e-04  2.19e-05  7.59e-04  1.23e-02  0.000   1.8
   14    -840.1478033724629313     9.71e-05  2.44e-05  6.62e-04  1.23e-02  0.000   1.7
   15    -840.1480602398453357    -2.57e-04  1.63e-04  4.65e-03  1.24e-02  0.000   1.7
   16    -840.1498847360114723    -1.82e-03  1.23e-04  3.55e-03  1.28e-02  0.000   1.9
   17    -840.1512139517149080    -1.33e-03  2.24e-05  8.33e-04  1.34e-02  0.000   1.9
   18    -840.1512115833299958     2.37e-06  7.22e-05  2.09e-03  1.36e-02  0.000   1.7
   19    -840.1520422426362984    -8.31e-04  2.85e-05  8.58e-04  1.38e-02  0.000   1.8
   20    -840.1523598300893809    -3.18e-04  1.33e-04  4.03e-03  1.39e-02  0.000   1.9
               *** Restarting incremental Fock matrix formation ***
                             ****Resetting DIIS****
   21    -840.1539453070763557    -1.59e-03  4.44e-04  1.34e-02  1.42e-02  0.000   2.6
   22    -840.1592790765068912    -5.33e-03  1.18e-04  3.62e-03  1.56e-02  0.000   2.0
   23    -840.1577963620129594     1.48e-03  2.85e-05  8.76e-04  1.53e-02  0.000   1.9
   24    -840.1574397885424332     3.57e-04  4.49e-05  1.38e-03  1.52e-02  0.000   1.7
   25    -840.1568825642559659     5.57e-04  7.82e-05  2.40e-03  1.51e-02  0.000   1.8
   26    -840.1559244406273592     9.58e-04  2.79e-04  8.47e-03  1.49e-02  0.000   1.8
   27    -840.1592798213932838    -3.36e-03  1.25e-04  3.65e-03  1.57e-02  0.000   1.9
   28    -840.1608670748066743    -1.59e-03  3.49e-04  1.05e-02  1.59e-02  0.000   1.8
   29    -840.1564938050694309     4.37e-03  1.88e-04  5.27e-03  1.52e-02  0.000   2.0
   30    -840.1543769467580205     2.12e-03  4.50e-04  1.21e-02  1.47e-02  0.000   2.0
   31    -840.1500049754083648     4.37e-03  7.90e-04  1.96e-02  1.34e-02  0.000   2.0
   32    -840.1452859223325049     4.72e-03  2.84e-04  6.55e-03  1.06e-02  0.000   2.1
   33    -840.1460304963184171    -7.45e-04  2.33e-04  7.12e-03  1.01e-02  0.000   2.0
   34    -840.1476060523477827    -1.58e-03  6.97e-05  1.73e-03  1.13e-02  0.000   1.9
   35    -840.1471745014548560     4.32e-04  1.53e-04  4.19e-03  1.12e-02  0.000   1.8
   36    -840.1480325290506244    -8.58e-04  2.85e-04  8.13e-03  1.19e-02  0.000   2.0
   37    -840.1464355335574510     1.60e-03  3.85e-04  9.51e-03  1.06e-02  0.000   2.0
   38    -840.1505057699305326    -4.07e-03  8.31e-04  2.03e-02  1.20e-02  0.000   2.1
   39    -840.1439995437588095     6.51e-03  2.71e-04  6.91e-03  1.02e-02  0.000   2.1
   40    -840.1433704070771000     6.29e-04  1.22e-04  3.21e-03  9.73e-03  0.000   2.0
               *** Restarting incremental Fock matrix formation ***
                             ****Resetting DIIS****
   41    -840.1437159832107682    -3.46e-04  2.83e-04  9.05e-03  9.82e-03  0.000   2.5
   42    -840.1458507418813042    -2.13e-03  1.76e-04  6.01e-03  1.12e-02  0.000   2.0
   43    -840.1444684256380242     1.38e-03  1.41e-04  5.01e-03  1.03e-02  0.000   2.0
   44    -840.1434323965734166     1.04e-03  3.32e-04  1.20e-02  9.48e-03  0.000   1.9
   45    -840.1413511110224590     2.08e-03  5.05e-04  1.81e-02  7.37e-03  0.000   2.0
   46    -840.1394798651051588     1.87e-03  1.99e-04  4.85e-03  3.80e-03  0.000   2.0
                              *** Initializing SOSCF ***
---------------------------------------S-O-S-C-F--------------------------------------
Iteration    Energy (Eh)           Delta-E    RMSDP     MaxDP     MaxGrad    Time(sec)
--------------------------------------------------------------------------------------
   47    -840.1397469761195680    -2.67e-04  7.69e-05  2.54e-03  2.75e-03     2.2
               *** Restarting incremental Fock matrix formation ***
   48    -840.1400701670190756    -3.23e-04  2.12e-04  6.61e-03  5.33e-03     2.5
Curvature condition for BFGS not met. Restarting diagonal Hessian.
   49    -840.1410706713538730    -1.00e-03  1.27e-03  2.64e-02  6.27e-03     2.0
   50    -840.1412546534875219    -1.84e-04  8.50e-04  2.32e-02  1.64e-02     2.3
               *** Scaled step length from 0.305894 to 0.200000 ***

       ******************************************************************************
       ***                                                                        ***
       ***                               Auto-TRAH                                ***
       ***                               ---------                                ***
       *** the maximum gradient error decreased on average only by a factor   1.0 ***
       *** during the last  10 iterations                                         ***
       ***                                                                        ***
       ***               Leaving SCF to start the TRAH-SCF procedure              ***
       ***                                                                        ***
       ******************************************************************************

 --------------------------------------------------------------------------------------------
   Iter.        energy            ||Error||_2        Shift      TRadius  Mac/Mic        Rej.
 --------------------------------------------------------------------------------------------
    0       -840.165321496647     7.763847e-02                     0.400 (TRAH MAcro)   No
    0     dE    -2.017879e-02     1.337110e-01    -1.8718e-02      0.279 (TRAH MIcro)
    0     dE    -4.487568e-02     4.821305e-02    -1.4072e-01      0.400 (TRAH MIcro)
    0     dE    -4.218510e-02     1.813930e-02    -1.7350e-01      0.358 (TRAH MIcro)
    0     dE    -4.252343e-02     1.355281e-02    -1.7496e-01      0.358 (TRAH MIcro)
    0     dE    -4.289311e-02     7.342348e-03    -1.7578e-01      0.359 (TRAH MIcro)
    1       -840.202656897285     4.473888e-02                     0.480 (TRAH MAcro)   No
    1     dE    -2.696179e-02     9.531168e-02    -2.7425e-02      0.480 (TRAH MIcro)
    1     dE    -3.959481e-02     7.110467e-02    -8.5295e-02      0.480 (TRAH MIcro)
    1     dE    -4.466098e-02     3.163692e-02    -1.1113e-01      0.480 (TRAH MIcro)
    1     dE    -4.576513e-02     2.052248e-02    -1.1785e-01      0.480 (TRAH MIcro)
    1     dE    -4.606052e-02     8.248107e-03    -1.2003e-01      0.480 (TRAH MIcro)
    1     dE    -3.741121e-02     4.982250e-03    -1.3533e-01      0.402 (TRAH MIcro)
    1     dE    -3.747814e-02     3.237075e-03    -1.3545e-01      0.402 (TRAH MIcro)
    2       -840.236844063495     4.286349e-02                     0.576 (TRAH MAcro)   No
    2     dE    -3.474039e-02     9.115903e-02    -3.2594e-02      0.576 (TRAH MIcro)
    2     dE    -4.465296e-02     5.463636e-02    -6.2736e-02      0.576 (TRAH MIcro)
    2     dE    -4.760275e-02     2.576337e-02    -7.3062e-02      0.576 (TRAH MIcro)
    2     dE    -4.625406e-02     2.252814e-02    -8.3427e-02      0.546 (TRAH MIcro)
    2     dE    -4.873286e-02     1.675521e-02    -8.4300e-02      0.567 (TRAH MIcro)
    2     dE    -4.996497e-02     9.427907e-03    -8.6428e-02      0.576 (TRAH MIcro)
    2     dE    -5.004007e-02     5.089439e-03    -8.7065e-02      0.576 (TRAH MIcro)
    2     dE    -5.006297e-02     2.346882e-03    -8.7247e-02      0.576 (TRAH MIcro)
    3       -840.280065000275     3.952423e-02                     0.691 (TRAH MAcro)   No
    3     dE    -1.611172e-02     8.784367e-02    -1.4042e-02      0.384 (TRAH MIcro)
    3     dE    -3.346180e-02     7.269980e-02    -2.3159e-02      0.667 (TRAH MIcro)
    3     dE    -4.187807e-02     3.969752e-02    -3.9396e-02      0.691 (TRAH MIcro)
    3     dE    -4.644085e-02     4.688144e-02    -5.2146e-02      0.691 (TRAH MIcro)
    3     dE    -4.839782e-02     3.245277e-02    -5.8532e-02      0.691 (TRAH MIcro)
    3     dE    -4.230575e-02     1.560167e-02    -6.8192e-02      0.603 (TRAH MIcro)
    3     dE    -4.444792e-02     1.244065e-02    -6.8780e-02      0.625 (TRAH MIcro)
    3     dE    -4.561024e-02     8.939253e-03    -6.9079e-02      0.636 (TRAH MIcro)
    3     dE    -4.611713e-02     4.537083e-03    -6.9193e-02      0.641 (TRAH MIcro)
    3     dE    -4.629668e-02     2.440570e-03    -6.9222e-02      0.642 (TRAH MIcro)
    4       -840.311276998887     4.239016e-02                     0.691 (TRAH MAcro)   No
    4     dE    -5.155210e-03     3.314229e-02    -5.0659e-03      0.133 (TRAH MIcro)
    4     dE    -8.076150e-03     4.319944e-02    -7.6393e-03      0.239 (TRAH MIcro)
    4     dE    -1.168980e-02     3.183862e-02    -1.0249e-02      0.375 (TRAH MIcro)
    4     dE    -1.415461e-02     2.437880e-02    -1.1677e-02      0.461 (TRAH MIcro)
    4     dE    -1.543577e-02     2.135014e-02    -1.2311e-02      0.504 (TRAH MIcro)
    4     dE    -1.685675e-02     1.954033e-02    -1.2929e-02      0.551 (TRAH MIcro)
    4     dE    -1.762549e-02     1.207536e-02    -1.3218e-02      0.577 (TRAH MIcro)
    4     dE    -1.804443e-02     1.041000e-02    -1.3365e-02      0.592 (TRAH MIcro)
    4     dE    -1.840661e-02     8.581294e-03    -1.3481e-02      0.604 (TRAH MIcro)
    4     dE    -1.863244e-02     5.909681e-03    -1.3548e-02      0.613 (TRAH MIcro)
    4     dE    -1.871525e-02     3.573863e-03    -1.3571e-02      0.616 (TRAH MIcro)
    5       -840.324808083125     2.674868e-02                     0.691 (TRAH MAcro)   No
    5     dE    -1.446790e-03     1.958572e-02    -1.4414e-03      0.061 (TRAH MIcro)
    5     dE    -1.976941e-03     1.917212e-02    -1.9586e-03      0.097 (TRAH MIcro)
    5     dE    -2.434340e-03     1.368833e-02    -2.3891e-03      0.138 (TRAH MIcro)
    5     dE    -2.997229e-03     1.842645e-02    -2.8781e-03      0.203 (TRAH MIcro)
    5     dE    -4.205632e-03     3.320740e-02    -3.7267e-03      0.359 (TRAH MIcro)
    5     dE    -1.075893e-02     5.173316e-02    -1.2504e-02      0.691 (TRAH MIcro)
    5     dE    -1.365981e-02     3.492308e-02    -1.9629e-02      0.691 (TRAH MIcro)
    5     dE    -8.013291e-03     1.690471e-02    -2.6910e-02      0.428 (TRAH MIcro)
    5     dE    -1.264285e-02     2.240295e-02    -2.8693e-02      0.571 (TRAH MIcro)
    5     dE    -1.792996e-02     1.899874e-02    -3.0518e-02      0.691 (TRAH MIcro)
    5     dE    -1.837869e-02     1.259555e-02    -3.1721e-02      0.691 (TRAH MIcro)
    5     dE    -1.851832e-02     7.009917e-03    -3.2098e-02      0.691 (TRAH MIcro)
    5     dE    -1.850355e-02     4.652061e-03    -3.2260e-02      0.690 (TRAH MIcro)
    5     dE    -1.859299e-02     2.664988e-03    -3.2314e-02      0.691 (TRAH MIcro)
    6       -840.328277605549     7.189228e-02                     0.463 (TRAH MAcro)   No
    6     dE    -5.952880e-03     3.392379e-02    -5.9014e-03      0.093 (TRAH MIcro)
    6     dE    -7.244731e-03     1.235841e-02    -7.1232e-03      0.131 (TRAH MIcro)
    6     dE    -7.567164e-03     1.411813e-02    -7.4074e-03      0.147 (TRAH MIcro)
    6     dE    -7.832054e-03     9.619764e-03    -7.6223e-03      0.166 (TRAH MIcro)
    6     dE    -8.033981e-03     6.736526e-03    -7.7699e-03      0.184 (TRAH MIcro)
    7       -840.336455279452     9.118578e-03                     0.556 (TRAH MAcro)   No
    7     dE    -2.730578e-04     1.719678e-02    -2.7264e-04      0.039 (TRAH MIcro)
    7     dE    -8.842186e-04     1.833900e-02    -8.6222e-04      0.160 (TRAH MIcro)
    7     dE    -3.970739e-03     5.030264e-02    -4.9861e-03      0.556 (TRAH MIcro)
    7     dE    -6.183250e-03     2.958529e-02    -1.2875e-02      0.556 (TRAH MIcro)
    7     dE    -6.686001e-03     1.402510e-02    -1.6998e-02      0.528 (TRAH MIcro)
    7     dE    -7.235286e-03     6.447671e-03    -1.7363e-02      0.549 (TRAH MIcro)
    7     dE    -7.417356e-03     5.251125e-03    -1.7568e-02      0.556 (TRAH MIcro)
    7     dE    -7.475066e-03     5.085796e-03    -1.7878e-02      0.556 (TRAH MIcro)
    7     dE    -7.510949e-03     4.311163e-03    -1.8091e-02      0.556 (TRAH MIcro)
    7     dE    -7.534487e-03     3.226192e-03    -1.8236e-02      0.556 (TRAH MIcro)
    7     dE    -7.542462e-03     1.683991e-03    -1.8291e-02      0.556 (TRAH MIcro)
    7     dE    -7.545358e-03     1.293371e-03    -1.8318e-02      0.556 (TRAH MIcro)
    7     dE    -7.546862e-03     8.040601e-04    -1.8333e-02      0.556 (TRAH MIcro)
    8       -840.359057216501     7.709517e-02                     0.667 (TRAH MAcro)   No
    8     dE    -1.182242e-01     8.540356e-02    -1.8143e-01      0.667 (TRAH MIcro)
    8     dE    -1.267561e-01     2.707869e-02    -1.9932e-01      0.667 (TRAH MIcro)
    8     dE    -1.272291e-01     8.047155e-03    -2.0028e-01      0.667 (TRAH MIcro)
    8     dE    -1.272850e-01     3.459311e-03    -2.0059e-01      0.667 (TRAH MIcro)
    9       -840.446898211134     5.674775e-02                     0.667 (TRAH MAcro)   No
    9     dE    -7.519736e-03     3.787527e-02    -7.3568e-03      0.149 (TRAH MIcro)
    9     dE    -8.909967e-03     1.447419e-02    -8.6110e-03      0.186 (TRAH MIcro)
    9     dE    -9.320045e-03     1.046214e-02    -8.9613e-03      0.200 (TRAH MIcro)
    9     dE    -9.534905e-03     8.923686e-03    -9.1327e-03      0.210 (TRAH MIcro)
    9     dE    -9.633782e-03     4.643554e-03    -9.2038e-03      0.216 (TRAH MIcro)
   10       -840.455788886754     8.894174e-03                     0.800 (TRAH MAcro)   No
   10     dE    -9.029909e-05     4.926433e-03    -9.0287e-05      0.012 (TRAH MIcro)
   10     dE    -1.155133e-04     2.129873e-03    -1.1548e-04      0.018 (TRAH MIcro)
   10     dE    -1.221601e-04     2.048524e-03    -1.2211e-04      0.020 (TRAH MIcro)
   10     dE    -1.282707e-04     1.534855e-03    -1.2821e-04      0.022 (TRAH MIcro)
   10     dE    -1.345417e-04     1.733608e-03    -1.3444e-04      0.027 (TRAH MIcro)
   10     dE    -1.400720e-04     1.519053e-03    -1.3992e-04      0.033 (TRAH MIcro)
   10     dE    -1.439741e-04     1.229367e-03    -1.4377e-04      0.038 (TRAH MIcro)
   10     dE    -1.461907e-04     1.188906e-03    -1.4595e-04      0.041 (TRAH MIcro)
   10     dE    -1.483021e-04     8.888723e-04    -1.4802e-04      0.044 (TRAH MIcro)
   11       -840.455937613505     8.971343e-04                     0.960 (TRAH MAcro)   No
   11     dE    -7.594508e-07     5.592664e-04    -7.5945e-07      0.001 (TRAH MIcro)
   11     dE    -1.200615e-06     4.610944e-04    -1.2006e-06      0.002 (TRAH MIcro)
   11     dE    -1.539403e-06     4.211315e-04    -1.5394e-06      0.003 (TRAH MIcro)
   11     dE    -1.829063e-06     3.797920e-04    -1.8290e-06      0.005 (TRAH MIcro)
   11     dE    -2.111445e-06     3.665632e-04    -2.1114e-06      0.006 (TRAH MIcro)
   11     dE    -2.297706e-06     2.910130e-04    -2.2976e-06      0.008 (TRAH MIcro)
   11     dE    -2.418798e-06     2.607726e-04    -2.4186e-06      0.009 (TRAH MIcro)
   11     dE    -2.521523e-06     2.372500e-04    -2.5213e-06      0.009 (TRAH MIcro)
   11     dE    -2.594816e-06     1.620691e-04    -2.5946e-06      0.010 (TRAH MIcro)
   11     dE    -2.629619e-06     1.139520e-04    -2.6293e-06      0.010 (TRAH MIcro)
   11     dE    -2.645901e-06     7.843984e-05    -2.6456e-06      0.011 (TRAH MIcro)
   12       -840.455940265662     7.862801e-05                           (NR   MAcro)
   12     dE    -8.789584e-09     8.051101e-05                           (NR   MIcro)
   12     dE    -2.154314e-08     8.910788e-05                           (NR   MIcro)
   12     dE    -3.453157e-08     8.490886e-05                           (NR   MIcro)
   12     dE    -4.314186e-08     6.666219e-05                           (NR   MIcro)
   12     dE    -4.919868e-08     5.949219e-05                           (NR   MIcro)
   12     dE    -5.433345e-08     5.433347e-05                           (NR   MIcro)
   12     dE    -5.891917e-08     5.066318e-05                           (NR   MIcro)
   12     dE    -6.235773e-08     4.159269e-05                           (NR   MIcro)
   12     dE    -6.536007e-08     4.781650e-05                           (NR   MIcro)
   12     dE    -6.873128e-08     4.586945e-05                           (NR   MIcro)
   12     dE    -7.333432e-08     6.588697e-05                           (NR   MIcro)
   12     dE    -8.234952e-08     6.324895e-05                           (NR   MIcro)
   12     dE    -8.588321e-08     3.163614e-05                           (NR   MIcro)
   12     dE    -8.747401e-08     2.737193e-05                           (NR   MIcro)
   12     dE    -8.865777e-08     2.370471e-05                           (NR   MIcro)
   12     dE    -9.002932e-08     2.756855e-05                           (NR   MIcro)
   12     dE    -9.124805e-08     2.703518e-05                           (NR   MIcro)
   12     dE    -9.219602e-08     2.831775e-05                           (NR   MIcro)
   12     dE    -9.313182e-08     1.956951e-05                           (NR   MIcro)
   12     dE    -9.362770e-08     1.478612e-05                           (NR   MIcro)
   12     dE    -9.402145e-08     1.564771e-05                           (NR   MIcro)
   12     dE    -9.444549e-08     1.101540e-05                           (NR   MIcro)
   12     dE    -9.458652e-08     7.012744e-06                           (NR   MIcro)
   12     dE    -9.464620e-08     4.439759e-06                           (NR   MIcro)
   13       -840.455940360239     4.511345e-06                           (NR   MAcro)

               *****************************************************
               *                     SUCCESS                       *
               *           SCF CONVERGED AFTER 190 CYCLES          *
               *****************************************************

             **** ENERGY FILE WAS UPDATED (C:\ORCA_6.0.0\TEMP\ORCA_Temp\orca.en.tmp) ****

----------------
TOTAL SCF ENERGY
----------------

Total Energy       :       -840.45594036023874 Eh          -22869.96882 eV

Components:
Nuclear Repulsion  :       1085.66286151421605 Eh           29542.38837 eV
Electronic Energy  :      -1925.50500125746225 Eh          -52395.65483 eV
One Electron Energy:      -3300.63831327180833 Eh          -89814.93461 eV
Two Electron Energy:       1375.13331201434607 Eh           37419.27978 eV
CPCM Dielectric    :         -0.01245866966353 Eh              -0.33902 eV

Virial components:
Potential Energy   :      -1677.15723262897336 Eh          -45637.76848 eV
Kinetic Energy     :        836.70129226873473 Eh           22767.79966 eV
Virial Ratio       :          2.00448744148742

CPCM Solvation Model Properties:
Surface-charge          :         -0.00572918143414
Corrected charge        :         -0.00000000000000
Outlying charge corr.   :          0.00000193537458 Eh               0.00005 eV
Free-energy (cav+disp)  :  This term is not implemented in the current solvation scheme

---------------
SCF CONVERGENCE
---------------

  Last Energy change         ...   -9.4577e-08  Tolerance :   1.0000e-08
  Last MAX-Density change    ...    4.3026e-02  Tolerance :   1.0000e-07
  Last RMS-Density change    ...    1.3746e-03  Tolerance :   5.0000e-09
  Last DIIS Error            ...    2.7526e-03  Tolerance :   5.0000e-07
  Last Orbital Gradient      ...    4.5113e-06  Tolerance :   1.0000e-05
  Last Orbital Rotation      ...    4.2807e-03  Tolerance :   1.0000e-05


----------------------
UHF SPIN CONTAMINATION
----------------------

Expectation value of <S**2>     :     7.010569
Ideal value S*(S+1) for S=0.5   :     0.750000
Deviation                       :     6.260569

----------------
ORBITAL ENERGIES
----------------
                 SPIN UP ORBITALS
  NO   OCC          E(Eh)            E(eV) 
   0   1.0000     -20.580517      -560.0243 
   1   1.0000     -20.555404      -559.3410 
   2   1.0000     -20.540142      -558.9257 
   3   1.0000     -20.526381      -558.5512 
   4   1.0000     -15.565745      -423.5655 
   5   1.0000     -11.415772      -310.6390 
   6   1.0000     -11.384300      -309.7825 
   7   1.0000     -11.333894      -308.4109 
   8   1.0000     -11.313573      -307.8580 
   9   1.0000     -11.310193      -307.7660 
  10   1.0000     -11.298158      -307.4385 
  11   1.0000     -11.286636      -307.1250 
  12   1.0000     -11.285061      -307.0821 
  13   1.0000     -11.284449      -307.0655 
  14   1.0000     -11.261865      -306.4509 
  15   1.0000     -11.258639      -306.3631 
  16   1.0000     -11.244230      -305.9710 
  17   1.0000     -11.235070      -305.7218 
  18   1.0000      -1.478821       -40.2408 
  19   1.0000      -1.451163       -39.4882 
  20   1.0000      -1.367792       -37.2195 
  21   1.0000      -1.248767       -33.9807 
  22   1.0000      -1.218202       -33.1490 
  23   1.0000      -1.195516       -32.5316 
  24   1.0000      -1.105472       -30.0814 
  25   1.0000      -1.065208       -28.9858 
  26   1.0000      -1.046229       -28.4693 
  27   1.0000      -0.987618       -26.8745 
  28   1.0000      -0.932358       -25.3708 
  29   1.0000      -0.927214       -25.2308 
  30   1.0000      -0.884580       -24.0707 
  31   1.0000      -0.838830       -22.8257 
  32   1.0000      -0.825735       -22.4694 
  33   1.0000      -0.753083       -20.4924 
  34   1.0000      -0.731886       -19.9156 
  35   1.0000      -0.704256       -19.1638 
  36   1.0000      -0.671731       -18.2787 
  37   1.0000      -0.664560       -18.0836 
  38   1.0000      -0.653168       -17.7736 
  39   1.0000      -0.640013       -17.4156 
  40   1.0000      -0.625280       -17.0147 
  41   1.0000      -0.615235       -16.7414 
  42   1.0000      -0.586525       -15.9601 
  43   1.0000      -0.574371       -15.6294 
  44   1.0000      -0.564053       -15.3487 
  45   1.0000      -0.557863       -15.1802 
  46   1.0000      -0.552239       -15.0272 
  47   1.0000      -0.533447       -14.5158 
  48   1.0000      -0.517422       -14.0798 
  49   1.0000      -0.502796       -13.6818 
  50   1.0000      -0.499601       -13.5948 
  51   1.0000      -0.461781       -12.5657 
  52   1.0000      -0.450392       -12.2558 
  53   1.0000      -0.447377       -12.1737 
  54   1.0000      -0.440748       -11.9934 
  55   1.0000      -0.438432       -11.9303 
  56   1.0000      -0.426440       -11.6040 
  57   1.0000      -0.397314       -10.8115 
  58   1.0000      -0.390273       -10.6199 
  59   0.0000       0.029864         0.8126 
  60   0.0000       0.040013         1.0888 
  61   0.0000       0.054440         1.4814 
  62   0.0000       0.074705         2.0328 
  63   0.0000       0.078741         2.1426 
  64   0.0000       0.108254         2.9457 
  65   0.0000       0.122756         3.3404 
  66   0.0000       0.139058         3.7840 
  67   0.0000       0.146787         3.9943 
  68   0.0000       0.156570         4.2605 
  69   0.0000       0.163637         4.4528 

                 SPIN DOWN ORBITALS
  NO   OCC          E(Eh)            E(eV) 
   0   1.0000     -20.581337      -560.0466 
   1   1.0000     -20.565748      -559.6224 
   2   1.0000     -20.554998      -559.3299 
   3   1.0000     -20.542086      -558.9786 
   4   1.0000     -15.564152      -423.5221 
   5   1.0000     -11.405716      -310.3653 
   6   1.0000     -11.377939      -309.6095 
   7   1.0000     -11.325390      -308.1795 
   8   1.0000     -11.303996      -307.5974 
   9   1.0000     -11.288326      -307.1710 
  10   1.0000     -11.277560      -306.8780 
  11   1.0000     -11.276542      -306.8503 
  12   1.0000     -11.274033      -306.7820 
  13   1.0000     -11.270844      -306.6953 
  14   1.0000     -11.270638      -306.6896 
  15   1.0000     -11.263727      -306.5016 
  16   1.0000     -11.261238      -306.4339 
  17   1.0000     -11.244738      -305.9849 
  18   1.0000      -1.484573       -40.3973 
  19   1.0000      -1.440336       -39.1935 
  20   1.0000      -1.362736       -37.0819 
  21   1.0000      -1.349829       -36.7307 
  22   1.0000      -1.246371       -33.9155 
  23   1.0000      -1.178225       -32.0611 
  24   1.0000      -1.119691       -30.4683 
  25   1.0000      -1.072467       -29.1833 
  26   1.0000      -1.061842       -28.8942 
  27   1.0000      -0.977782       -26.6068 
  28   1.0000      -0.913457       -24.8564 
  29   1.0000      -0.888670       -24.1819 
  30   1.0000      -0.866251       -23.5719 
  31   1.0000      -0.820525       -22.3276 
  32   1.0000      -0.795753       -21.6535 
  33   1.0000      -0.748058       -20.3557 
  34   1.0000      -0.719681       -19.5835 
  35   1.0000      -0.692730       -18.8501 
  36   1.0000      -0.679755       -18.4971 
  37   1.0000      -0.670365       -18.2416 
  38   1.0000      -0.660083       -17.9618 
  39   1.0000      -0.645173       -17.5561 
  40   1.0000      -0.631316       -17.1790 
  41   1.0000      -0.597883       -16.2692 
  42   1.0000      -0.589116       -16.0307 
  43   1.0000      -0.583967       -15.8905 
  44   1.0000      -0.563304       -15.3283 
  45   1.0000      -0.546621       -14.8743 
  46   1.0000      -0.542520       -14.7627 
  47   1.0000      -0.528577       -14.3833 
  48   1.0000      -0.525163       -14.2904 
  49   1.0000      -0.519526       -14.1370 
  50   1.0000      -0.510127       -13.8813 
  51   1.0000      -0.494138       -13.4462 
  52   1.0000      -0.483366       -13.1531 
  53   1.0000      -0.469668       -12.7803 
  54   1.0000      -0.451697       -12.2913 
  55   1.0000      -0.446492       -12.1497 
  56   1.0000      -0.416207       -11.3256 
  57   1.0000      -0.376162       -10.2359 
  58   0.0000       0.022341         0.6079 
  59   0.0000       0.046238         1.2582 
  60   0.0000       0.052723         1.4347 
  61   0.0000       0.059116         1.6086 
  62   0.0000       0.093671         2.5489 
  63   0.0000       0.109167         2.9706 
  64   0.0000       0.127166         3.4604 
  65   0.0000       0.132944         3.6176 
  66   0.0000       0.145361         3.9555 
  67   0.0000       0.154994         4.2176 
  68   0.0000       0.171097         4.6558 
*Only the first 10 virtual orbitals were printed.
------------------
MOLECULAR ORBITALS (UHF)
------------------
                      0         1         2         3         4         5   
                 -20.58052 -20.55540 -20.54014 -20.52638 -15.56575 -11.41577
                   1.00000   1.00000   1.00000   1.00000   1.00000   1.00000
                  --------  --------  --------  --------  --------  --------
  0C   1s         0.000102 -0.000074  0.000016  0.000038 -0.000009  0.001494
  0C   2s        -0.001467 -0.000470  0.000100  0.000447 -0.000136  0.001366
  0C   1pz        0.000184 -0.000038  0.000072  0.001195 -0.000173 -0.002333
  0C   1px       -0.000290  0.000070  0.000112 -0.000089  0.000020 -0.000075
  0C   1py        0.000618 -0.000083 -0.000030  0.000188 -0.000026  0.000164
  0C   3s        -0.009166  0.003351 -0.001083 -0.005639 -0.000854  0.000596
  0C   2pz        0.026443  0.002656 -0.001179 -0.022964 -0.000520  0.022715
  0C   2px       -0.008600 -0.000657 -0.000645  0.001945 -0.000115  0.001545
  0C   2py        0.018093  0.001651  0.000704 -0.004057  0.000549 -0.003331
  1C   1s         0.000165  0.000022  0.000010  0.000187 -0.000015  0.000645
  1C   2s         0.000966  0.000109  0.000063  0.000878 -0.000132  0.000225
  1C   1pz        0.000882  0.000029 -0.000038 -0.002292 -0.000142 -0.000604
  1C   1px       -0.000271 -0.000029  0.000016  0.000313  0.000047  0.000266
  1C   1py        0.000577  0.000171  0.000023 -0.000651 -0.000083 -0.000560
  1C   3s        -0.015756 -0.001032 -0.000802  0.008196 -0.000776  0.006968
  1C   2pz       -0.017255 -0.000912  0.000245  0.027805 -0.000270 -0.000063
  1C   2px        0.005804 -0.000220 -0.000171 -0.006604  0.000047  0.002511
  1C   2py       -0.012251 -0.000075  0.000249  0.013850  0.000367 -0.005311
  2C   1s        -0.000095  0.000037  0.000016  0.000311 -0.000112  0.000531
  2C   2s        -0.000266  0.000245  0.000100  0.001636 -0.000661  0.000807
  2C   1pz       -0.000455 -0.000103  0.000016  0.000848  0.000041  0.000043
  2C   1px        0.000382  0.000028 -0.000013 -0.000411  0.000123  0.000074
  2C   1py       -0.000815 -0.000061  0.000029  0.000849  0.000110 -0.000165
  2C   3s         0.019188 -0.000727 -0.001350 -0.030467  0.004725 -0.000818
  2C   2pz       -0.004163 -0.000408 -0.000881 -0.003413  0.002296 -0.002273
  2C   2px        0.003253  0.000081  0.000246 -0.004718 -0.000351 -0.000219
  2C   2py       -0.006776  0.000582 -0.000010  0.010013 -0.001257  0.000502
  3C   1s         0.000045 -0.000051  0.000026 -0.000139 -0.000102  0.000234
  3C   2s         0.000289 -0.000174  0.000282 -0.000562 -0.000846  0.000264
  3C   1pz        0.000072  0.000461  0.000331 -0.000455 -0.001040 -0.000176
  3C   1px        0.000136  0.000150  0.000140  0.000109 -0.000389  0.000000
  3C   1py       -0.000264 -0.000120 -0.000070 -0.000193 -0.000028  0.000019
  3C   3s        -0.000347  0.005964  0.000548  0.012395 -0.002490 -0.000660
  3C   2pz        0.000709  0.000519 -0.001598 -0.005164  0.004341 -0.001367
  3C   2px       -0.000635  0.000058 -0.001016  0.001009  0.001305 -0.000644
  3C   2py        0.001150 -0.002638  0.000116 -0.002376  0.000687  0.001278
  4C   1s        -0.000136 -0.000051  0.000042  0.000077 -0.000243 -0.000030
  4C   2s        -0.000504 -0.000152 -0.000128  0.000383 -0.001479 -0.000145
  4C   1pz       -0.001109  0.000162 -0.000506 -0.000405 -0.000626 -0.000157
  4C   1px       -0.000003 -0.000649  0.000121 -0.000071  0.000116  0.000086
  4C   1py       -0.000051  0.000752  0.000178  0.000158 -0.000782 -0.000186
  4C   3s         0.014226  0.000663  0.001857 -0.004357  0.003343  0.003061
  4C   2pz        0.001641 -0.003137 -0.000283  0.007331  0.008452 -0.001655
  4C   2px        0.002720  0.007226  0.002386  0.000612 -0.001313 -0.000679
  4C   2py       -0.005423 -0.008607 -0.000093 -0.001393  0.006040  0.001465
  5C   1s         0.000267  0.000128  0.000015 -0.000191 -0.000103  0.000943
  5C   2s         0.001434  0.000605  0.000178 -0.000798 -0.000614  0.001723
  5C   1pz        0.000918 -0.000592  0.000267 -0.000628  0.000160  0.000213
  5C   1px       -0.000031 -0.000049 -0.000229 -0.000176  0.000051 -0.000028
  5C   1py        0.000042  0.000001 -0.000071  0.000357  0.000168  0.000057
  5C   3s        -0.020964 -0.010913 -0.000318  0.018530  0.007360 -0.017706
  5C   2pz       -0.000489 -0.000121 -0.002054 -0.008402  0.000109  0.010113
  5C   2px        0.004461  0.001206  0.000529 -0.001369 -0.001941  0.000791
  5C   2py       -0.009472 -0.004033 -0.000790  0.003002  0.002251 -0.001717
  6C   1s         0.000192  0.000831 -0.000824  0.000047  0.000123  0.001225
  6C   2s         0.001086  0.003434 -0.003525  0.000219  0.000279  0.000519
  6C   1pz        0.000109 -0.000111  0.000030  0.000192 -0.001066 -0.000193
  6C   1px        0.000021 -0.000263 -0.000428 -0.000025 -0.000440  0.000077
  6C   1py       -0.000023  0.000512 -0.000464  0.000038 -0.000444 -0.000156
  6C   3s        -0.006465 -0.015478  0.015701 -0.003740 -0.006567 -0.000685
  6C   2pz        0.002979 -0.008600  0.006420  0.001498  0.003436  0.000701
  6C   2px       -0.000688 -0.011245 -0.010013  0.000161  0.002056 -0.000350
  6C   2py        0.000185  0.003670 -0.003659 -0.000682 -0.002424  0.000628
  7C   1s        -0.000027 -0.000190  0.000106 -0.000022 -0.000557 -0.000024
  7C   2s        -0.000060 -0.000716  0.000411 -0.000135 -0.002396 -0.000038
  7C   1pz       -0.000047  0.000236  0.000445  0.000070 -0.000331  0.000046
  7C   1px       -0.000018  0.000077 -0.000204  0.000093 -0.000422 -0.000008
  7C   1py       -0.000099 -0.000856 -0.000033 -0.000065  0.000151 -0.000016
  7C   3s         0.001280  0.005971 -0.002003  0.000857  0.022379 -0.000037
  7C   2pz       -0.000272 -0.000947 -0.003748 -0.000392  0.023029 -0.000429
  7C   2px        0.000152  0.001983  0.003688 -0.000489  0.002775  0.000199
  7C   2py       -0.000548 -0.002730  0.002486 -0.000287  0.001786  0.000147
  8O   1s         0.000151 -0.007141  0.983606 -0.000588 -0.000008 -0.000004
  8O   2s         0.000005 -0.001247  0.097849 -0.000040  0.000059 -0.000036
  8O   1pz        0.000016 -0.000317 -0.001213 -0.000002  0.000107  0.000029
  8O   1px        0.000004 -0.000379  0.003030  0.000021  0.000107 -0.000017
  8O   1py        0.000007  0.000158 -0.001615 -0.000020  0.000099  0.000031
  8O   3s         0.000126  0.001417 -0.045902  0.000061  0.000317  0.000082
  8O   2pz       -0.000252  0.001484  0.003008 -0.000048 -0.000680 -0.000161
  8O   2px        0.000150  0.002273 -0.008557 -0.000018 -0.000187  0.000099
  8O   2py        0.000062 -0.000433  0.002844  0.000141 -0.000024 -0.000129
  9C   1s         0.000011 -0.000010 -0.000037  0.000002 -0.000014 -0.000011
  9C   2s         0.000063 -0.000111 -0.000399  0.000015 -0.000542 -0.000000
  9C   1pz       -0.000014 -0.000011 -0.000078 -0.000007 -0.001225 -0.000003
  9C   1px        0.000002  0.000301  0.000259 -0.000004  0.000291  0.000012
  9C   1py       -0.000004 -0.000115  0.000321 -0.000001 -0.000102  0.000022
  9C   3s        -0.000369 -0.001280 -0.001471 -0.000004 -0.000014 -0.000207
  9C   2pz       -0.000018 -0.000547 -0.000317  0.000111 -0.001026 -0.000013
  9C   2px        0.000210  0.000320  0.000796  0.000071 -0.000969  0.000136
  9C   2py        0.000156  0.000534 -0.001064  0.000041  0.000196 -0.000024
 10O   1s        -0.001313 -0.983676 -0.006996 -0.000391  0.000054 -0.000015
 10O   2s        -0.000296 -0.098989 -0.000114  0.000013  0.000422 -0.000126
 10O   1pz        0.000106  0.001931  0.000210  0.000013 -0.000265  0.000044
 10O   1px        0.000004  0.002446 -0.000335 -0.000012 -0.000009  0.000007
 10O   1py        0.000014  0.002298 -0.000159 -0.000027  0.000065  0.000011
 10O   3s         0.000606  0.049571 -0.001291 -0.000236 -0.001903  0.000476
 10O   2pz       -0.000665 -0.005265 -0.000675 -0.000065  0.000737 -0.000297
 10O   2px       -0.000180 -0.007581  0.002432  0.000048  0.000600 -0.000095
 10O   2py        0.000088 -0.004919  0.000290  0.000222 -0.001082 -0.000091
 11C   1s        -0.000011 -0.000092 -0.000491 -0.000009 -0.000012 -0.000009
 11C   2s        -0.000068 -0.000844 -0.001490 -0.000043 -0.000083  0.000007
 11C   1pz       -0.000027  0.000031 -0.000108  0.000023  0.000017 -0.000036
 11C   1px       -0.000011 -0.000306 -0.000100 -0.000001  0.000002 -0.000000
 11C   1py       -0.000017 -0.000221  0.001470  0.000022 -0.000016 -0.000032
 11C   3s         0.000230  0.000929  0.008897  0.000357  0.000407 -0.000213
 11C   2pz        0.000120 -0.000616  0.001145  0.000063  0.000165  0.000017
 11C   2px        0.000137  0.001087  0.000827  0.000172  0.000248 -0.000080
 11C   2py        0.000097  0.000359  0.006862 -0.000051 -0.000131  0.000070
 12C   1s        -0.000015  0.000405  0.000135 -0.000029  0.000016  0.000170
 12C   2s        -0.000106  0.000695  0.001105 -0.000218  0.000070  0.000143
 12C   1pz       -0.000080  0.000041 -0.000104  0.000133  0.000082 -0.000141
 12C   1px        0.000025  0.000081 -0.000344  0.000025 -0.000044 -0.000011
 12C   1py       -0.000070 -0.002095  0.000195 -0.000019 -0.000096  0.000007
 12C   3s         0.000405 -0.010181 -0.001690  0.000658 -0.000509 -0.000322
 12C   2pz        0.000308 -0.000989  0.000784 -0.000293 -0.000370  0.000391
 12C   2px       -0.000271  0.001377  0.001219 -0.000248  0.000139  0.000063
 12C   2py        0.000095 -0.008268 -0.000484  0.000208 -0.000135 -0.000168
 13C   1s         0.000010 -0.000023  0.000048  0.000020  0.000026 -0.000042
 13C   2s         0.000055  0.000291 -0.000098  0.000122  0.000179 -0.000072
 13C   1pz        0.000034 -0.000130  0.000203 -0.000004 -0.000030  0.000022
 13C   1px       -0.000004  0.000526  0.000526 -0.000028  0.000006  0.000019
 13C   1py       -0.000005  0.000455 -0.000272  0.000004  0.000060 -0.000007
 13C   3s        -0.000497  0.000786 -0.000989 -0.000573 -0.000366  0.000203
 13C   2pz       -0.000008  0.000373 -0.000169  0.000268  0.000259 -0.000223
 13C   2px       -0.000084 -0.000615  0.000141  0.000115  0.000340 -0.000151
 13C   2py       -0.000210  0.001757 -0.001357 -0.000227 -0.000172  0.000088
 14N   1s         0.000017 -0.000050 -0.000019  0.000003  0.985822 -0.000003
 14N   2s         0.000109 -0.000324 -0.000025  0.000018  0.096763 -0.000016
 14N   1pz       -0.000013  0.000105 -0.000107 -0.000002 -0.004646 -0.000004
 14N   1px       -0.000020  0.000252  0.000017 -0.000024 -0.000387 -0.000004
 14N   1py       -0.000058 -0.000008 -0.000247 -0.000009 -0.000692 -0.000013
 14N   3s        -0.000284  0.000534  0.001592  0.000028 -0.052715  0.000171
 14N   2pz        0.000141 -0.000149 -0.000675 -0.000008  0.017830 -0.000071
 14N   2px        0.000053 -0.000808 -0.000547  0.000120  0.001326 -0.000017
 14N   2py        0.000275 -0.000197  0.000281  0.000052  0.003152  0.000023
 15O   1s        -0.983863  0.001272  0.000159 -0.001723 -0.000007  0.000049
 15O   2s        -0.100860 -0.000024 -0.000023  0.000365 -0.000093 -0.000977
 15O   1pz        0.000034  0.000020 -0.000024  0.000234 -0.000074  0.001357
 15O   1px        0.001680  0.000009 -0.000027  0.000093  0.000000  0.000333
 15O   1py       -0.003556 -0.000029  0.000000 -0.000197  0.000003 -0.000708
 15O   3s         0.058415  0.000801  0.000199 -0.004978  0.000310 -0.000508
 15O   2pz        0.003213  0.000061  0.000200 -0.002764  0.000370 -0.000148
 15O   2px       -0.005513 -0.000129  0.000106  0.000444 -0.000026 -0.001485
 15O   2py        0.011645  0.000268  0.000002 -0.000927  0.000014  0.003140
 16O   1s         0.001870  0.000406 -0.000591 -0.983926 -0.000000  0.000310
 16O   2s         0.000684  0.000096 -0.000098 -0.095122 -0.000013  0.002057
 16O   1pz        0.000162  0.000005 -0.000006 -0.002573 -0.000011 -0.000146
 16O   1px       -0.000167 -0.000020 -0.000004 -0.000682  0.000013 -0.000023
 16O   1py        0.000350  0.000016 -0.000003  0.001450 -0.000011  0.000048
 16O   3s        -0.002879 -0.000241  0.000179  0.041673  0.000010 -0.007512
 16O   2pz       -0.002038 -0.000082  0.000079  0.008893  0.000031  0.000145
 16O   2px        0.000785  0.000063  0.000012  0.001636 -0.000045 -0.001809
 16O   2py       -0.001643 -0.000043  0.000012 -0.003487  0.000031  0.003826
 17C   1s         0.000398 -0.000014  0.000004  0.000583 -0.000005 -0.986904
 17C   2s         0.000856 -0.000127  0.000040  0.003452 -0.000017 -0.089744
 17C   1pz       -0.001764 -0.000061  0.000025  0.000258  0.000022 -0.004792
 17C   1px       -0.000223  0.000003 -0.000008 -0.000123  0.000013  0.001014
 17C   1py        0.000475 -0.000007 -0.000003  0.000261 -0.000009 -0.002148
 17C   3s        -0.006561  0.000275 -0.000050 -0.009053  0.000124  0.036405
 17C   2pz       -0.004836  0.000226 -0.000040 -0.003185  0.000079  0.008060
 17C   2px        0.000235 -0.000033  0.000029  0.002454 -0.000014 -0.002601
 17C   2py       -0.000484  0.000066 -0.000043 -0.005179 -0.000012  0.005475
[...]
     13       0.219937   0.048742   0.252150   0.064495  -0.272613   0.142154
     14       0.007144   0.344880  -0.365570  -0.092075   0.139940  -0.159365
     15       0.001713   0.094010  -0.051006  -0.022796  -0.110549   0.093298
     16      -0.025291  -0.225833   0.045495   0.027654   0.194793  -0.061115
     17       0.027999  -0.222433  -0.264890  -0.010444  -0.061787   0.588449
     18      -0.047494  -0.031442   0.033845  -0.004745  -0.027041   0.014164
     19      -0.586601  -0.194834   0.027860   0.024932   0.068373  -0.049473
     20      -0.333177  -0.239952   0.144675   0.028806  -0.017731  -0.005667
     21       0.066290   0.032467  -0.018713   0.006974   0.006174  -0.002169
     22       0.405952   0.111965  -0.021440   0.000987  -0.010961   0.010394
     23       0.235835   0.076338  -0.026156  -0.006571   0.004469   0.000055
     24      -0.016650  -0.011613   0.000704  -0.011175   0.002611  -0.001659
     25       0.044524   0.001165   0.024784  -0.160270  -0.020786   0.005126
     26       0.032758   0.018385  -0.001965  -0.008588  -0.003993   0.003611
     27      -0.138289  -0.034078   0.007443  -0.002664  -0.001594   0.000386
     28      -0.020318  -0.002363  -0.002445  -0.000538   0.001658  -0.000571
     29      -0.023319  -0.006920   0.002107   0.000343  -0.000848   0.000532
     30       0.015701   0.014868   0.008685   0.015872  -0.007479  -0.002490
     31       0.052409   0.015347  -0.011029  -0.008075  -0.000934   0.001191
     32       0.040749   0.036322   0.013661  -0.011009  -0.018244  -0.007680
     33       0.038195  -0.004738   0.058873  -0.366684  -0.036941   0.005027
     34       0.068982   0.056620  -0.075765   0.440451   0.037318  -0.005453
     35      -0.014740   0.013557  -0.061869   0.374237   0.035732  -0.003246
     36      -0.039909  -0.045908   0.052241  -0.095169   0.000985  -0.016633
     37       0.077269   0.115323  -0.071709  -0.131281  -0.052566   0.047085
     38       0.028293   0.027088   0.066416   0.095862   0.044952  -0.100037
     39       0.003905   0.016012  -0.065992   0.482598   0.051417  -0.013682
     40      -0.037844  -0.046645   0.031901  -0.145519  -0.003097   0.002246
     41      -0.019149  -0.019765   0.063953  -0.422880  -0.043235   0.006373
     42       0.121724   0.025342  -0.001816   0.000340  -0.000854   0.000863
     43      -0.113385  -0.022185   0.001756  -0.001579  -0.000215  -0.000186
     44      -0.052246  -0.012232   0.002828  -0.000164  -0.001331   0.000566
     45      -0.029405   0.066875   0.017235   0.000439  -0.012359   0.001837
     46       0.052333  -0.117449  -0.035379  -0.000425   0.015704   0.005669
     47       0.004580  -0.014994  -0.038278   0.002199  -0.033517   0.048598
     48       0.014894  -0.016734  -0.005772  -0.003368   0.021441   0.001269
     49      -0.013403   0.004182   0.004118   0.005875  -0.041362   0.000133
     50       0.068018  -0.136797  -0.029987   0.002476  -0.026491   0.006978
     51       0.003251   0.006675   0.010661  -0.003553   0.046706   0.012200
     52      -0.013033  -0.013453  -0.029094   0.006687  -0.087873  -0.011941
     53      -0.041215  -0.016095  -0.062344   0.002300  -0.047148   0.052309


-----------
IR SPECTRUM
-----------

 Mode   freq       eps      Int      T**2         TX        TY        TZ
       cm**-1   L/(mol*cm) km/mol    a.u.
----------------------------------------------------------------------------
  6:     60.89   0.000213    1.08  0.001094  ( 0.027883  0.001876  0.017682)
  7:     77.13   0.000783    3.95  0.003166  ( 0.040593  0.035668 -0.015682)
  8:    102.27   0.000600    3.03  0.001829  ( 0.034088  0.010295  0.023695)
  9:    135.41   0.000128    0.65  0.000294  (-0.012633  0.000603 -0.011585)
 10:    173.07   0.000135    0.68  0.000243  (-0.000069 -0.014860 -0.004690)
 11:    238.29   0.000446    2.26  0.000584  (-0.012055  0.017382 -0.011705)
 12:    247.84   0.000234    1.18  0.000295  (-0.001052  0.012541 -0.011691)
 13:    277.15   0.000335    1.69  0.000377  (-0.005050  0.002061 -0.018636)
 14:    319.05   0.000495    2.50  0.000484  ( 0.015085  0.014801  0.006121)
 15:    337.26   0.001525    7.71  0.001411  ( 0.031001  0.000983  0.021196)
 16:    384.48   0.000199    1.00  0.000161  ( 0.008195 -0.004828 -0.008412)
 17:    439.66   0.001746    8.83  0.001240  ( 0.033833  0.004913  0.008411)
 18:    479.58   0.001655    8.36  0.001077  ( 0.032722  0.002088 -0.001253)
 19:    512.61   0.001605    8.11  0.000977  ( 0.016183  0.001285 -0.026711)
 20:    533.40   0.004931   24.92  0.002885  (-0.008499 -0.010425 -0.052000)
 21:    551.96   0.005351   27.04  0.003025  (-0.018513 -0.051489  0.005624)
 22:    577.63   0.001060    5.36  0.000573  (-0.013941  0.000142  0.019453)
 23:    613.28   0.004307   21.76  0.002191  ( 0.023792  0.025780 -0.030995)
 24:    619.83   0.002954   14.93  0.001487  (-0.007977  0.001338 -0.037708)
 25:    636.07   0.004055   20.49  0.001990  (-0.036403 -0.014966 -0.020988)
 26:    660.80   0.000267    1.35  0.000126  ( 0.002045  0.007324 -0.008250)
 27:    711.16   0.002095   10.59  0.000919  (-0.002860 -0.029855  0.004445)
 28:    722.85   0.003065   15.49  0.001323  (-0.002676 -0.020337 -0.030040)
 29:    749.75   0.000233    1.18  0.000097  ( 0.000625  0.007828 -0.005929)
 30:    823.15   0.004684   23.67  0.001776  ( 0.006381 -0.018283  0.037429)
 31:    865.27   0.000969    4.90  0.000349  ( 0.001833  0.003718 -0.018227)
 32:    890.73   0.004567   23.08  0.001600  ( 0.019066 -0.003561 -0.034986)
 33:    940.72   0.011310   57.16  0.003752  (-0.005353  0.020244  0.057561)
 34:    950.15   0.007241   36.59  0.002378  ( 0.004931 -0.013491 -0.046604)
 35:    981.85   0.004267   21.56  0.001356  ( 0.000467  0.018662 -0.031745)
 36:    991.17   0.021790  110.12  0.006860  (-0.032018  0.073387 -0.021202)
 37:   1007.78   0.012906   65.22  0.003996  ( 0.008522 -0.002399  0.062594)
 38:   1012.30   0.013657   69.02  0.004210  ( 0.057838  0.021785  0.019754)
 39:   1067.14   0.033545  169.52  0.009810  ( 0.012886  0.074107 -0.064434)
 40:   1092.97   0.024788  125.27  0.007078  ( 0.015063 -0.082719  0.002868)
 41:   1136.03   0.017172   86.78  0.004717  ( 0.064554 -0.018557  0.014333)
 42:   1158.92   0.003322   16.79  0.000894  (-0.013849 -0.021453 -0.015571)
 43:   1202.37   0.024168  122.14  0.006273  (-0.027081 -0.073439 -0.012083)
 44:   1225.29   0.052864  267.16  0.013464  (-0.030524  0.054475  0.097799)
 45:   1270.21   0.015607   78.87  0.003834  ( 0.009959 -0.020927 -0.057421)
 46:   1286.01   0.021454  108.42  0.005206  (-0.002854  0.035437 -0.062787)
 47:   1328.42   0.001683    8.50  0.000395  ( 0.001789 -0.010065 -0.017054)
 48:   1379.75   0.028144  142.23  0.006365  (-0.001865 -0.055149 -0.057625)
 49:   1425.91   0.007658   38.70  0.001676  (-0.015360  0.023751  0.029597)
 50:   1513.74   0.003623   18.31  0.000747  (-0.006340  0.014340  0.022384)
 51:   1536.42   0.003664   18.52  0.000744  (-0.018687  0.008841  0.017800)
 52:   1588.14   0.000547    2.77  0.000108  (-0.001113  0.008243  0.006195)
 53:   1704.12   0.000258    1.31  0.000047  (-0.002576 -0.004270 -0.004736)

* The epsilon (eps) is given for a Dirac delta lineshape.
** The dipole moment derivative (T) already includes vibrational overlap.

The first frequency considered to be a vibration is 6
The total number of vibrations considered is 48


--------------------------
THERMOCHEMISTRY AT 298.15K
--------------------------

Temperature         ...   298.15 K
Pressure            ...     1.00 atm
Total Mass          ...   234.15 AMU
Quasi RRHO          ...     True
Cut-Off Frequency   ...     1.00 cm^-1

Throughout the following assumptions are being made:
  (1) The electronic state is orbitally nondegenerate
      but the spin degeneracy is treated
  (2) There are no thermally accessible electronically excited states
  (3) Hindered rotations indicated by low frequency modes are not
      treated as such but are treated as vibrations and this may
      cause some error
  (4) All equations used are the standard statistical mechanics
      equations for an ideal gas
  (5) All vibrations are strictly harmonic

freq.      60.89  E(vib)   ...       0.51 
freq.      77.13  E(vib)   ...       0.49 
freq.     102.27  E(vib)   ...       0.46 
freq.     135.41  E(vib)   ...       0.42 
freq.     173.07  E(vib)   ...       0.38 
freq.     238.29  E(vib)   ...       0.32 
freq.     247.84  E(vib)   ...       0.31 
freq.     277.15  E(vib)   ...       0.28 
freq.     319.05  E(vib)   ...       0.25 
freq.     337.26  E(vib)   ...       0.24 
freq.     384.48  E(vib)   ...       0.20 
freq.     439.66  E(vib)   ...       0.17 
freq.     479.58  E(vib)   ...       0.15 
freq.     512.61  E(vib)   ...       0.13 
freq.     533.40  E(vib)   ...       0.13 
freq.     551.96  E(vib)   ...       0.12 
freq.     577.63  E(vib)   ...       0.11 
freq.     613.28  E(vib)   ...       0.10 
freq.     619.83  E(vib)   ...       0.09 
freq.     636.07  E(vib)   ...       0.09 
freq.     660.80  E(vib)   ...       0.08 
freq.     711.16  E(vib)   ...       0.07 
freq.     722.85  E(vib)   ...       0.07 
freq.     749.75  E(vib)   ...       0.06 
freq.     823.15  E(vib)   ...       0.05 
freq.     865.27  E(vib)   ...       0.04 
freq.     890.73  E(vib)   ...       0.04 
freq.     940.72  E(vib)   ...       0.03 
freq.     950.15  E(vib)   ...       0.03 
freq.     981.85  E(vib)   ...       0.02 
freq.     991.17  E(vib)   ...       0.02 
freq.    1007.78  E(vib)   ...       0.02 
freq.    1012.30  E(vib)   ...       0.02 
freq.    1067.14  E(vib)   ...       0.02 
freq.    1092.97  E(vib)   ...       0.02 
freq.    1136.03  E(vib)   ...       0.01 
freq.    1158.92  E(vib)   ...       0.01 
freq.    1202.37  E(vib)   ...       0.01 
freq.    1225.29  E(vib)   ...       0.01 
freq.    1270.21  E(vib)   ...       0.01 
freq.    1286.01  E(vib)   ...       0.01 
freq.    1328.42  E(vib)   ...       0.01 
freq.    1379.75  E(vib)   ...       0.01 
freq.    1425.91  E(vib)   ...       0.00 
freq.    1513.74  E(vib)   ...       0.00 
freq.    1536.42  E(vib)   ...       0.00 
freq.    1588.14  E(vib)   ...       0.00 
freq.    1704.12  E(vib)   ...       0.00 

------------
INNER ENERGY
------------

The inner energy is: U= E(el) + E(ZPE) + E(vib) + E(rot) + E(trans)
    E(el)   - is the total energy from the electronic structure calculation
              = E(kin-el) + E(nuc-el) + E(el-el) + E(nuc-nuc)
    E(ZPE)  - the the zero temperature vibrational energy from the frequency calculation
    E(vib)  - the the finite temperature correction to E(ZPE) due to population
              of excited vibrational states
    E(rot)  - is the rotational thermal energy
    E(trans)- is the translational thermal energy

Summary of contributions to the inner energy U:
Electronic energy                ...   -840.85472494 Eh
Zero point energy                ...      0.08780057 Eh      55.10 kcal/mol
Thermal vibrational correction   ...      0.00892247 Eh       5.60 kcal/mol
Thermal rotational correction    ...      0.00141627 Eh       0.89 kcal/mol
Thermal translational correction ...      0.00141627 Eh       0.89 kcal/mol
-----------------------------------------------------------------------
Total thermal energy                   -840.75516936 Eh


Summary of corrections to the electronic energy:
(perhaps to be used in another calculation)
Total thermal correction                  0.01175501 Eh       7.38 kcal/mol
Non-thermal (ZPE) correction              0.08780057 Eh      55.10 kcal/mol
-----------------------------------------------------------------------
Total correction                          0.09955558 Eh      62.47 kcal/mol


--------
ENTHALPY
--------

The enthalpy is H = U + kB*T
                kB is Boltzmann's constant
Total thermal energy              ...   -840.75516936 Eh 
Thermal Enthalpy correction       ...      0.00094421 Eh       0.59 kcal/mol
-----------------------------------------------------------------------
Total Enthalpy                    ...   -840.75422515 Eh


Note: Only C1 symmetry has been detected, increase convergence thresholds 
      if your molecule has a higher symmetry. Symmetry factor of 1.0 is   
      used for the rotational entropy correction. 
 

Note: Rotational entropy computed according to Herzberg 
Infrared and Raman Spectra, Chapter V,1, Van Nostrand Reinhold, 1945 
Point Group:  C1, Symmetry Number:   1  
Rotational constants in cm-1:     0.033419     0.011840     0.010187 

Vibrational entropy computed according to the QRRHO of S. Grimme
Chem.Eur.J. 2012 18 9955 using a reference frequency of 100.0 cm-1


-------
ENTROPY
-------

The entropy contributions are T*S = T*(S(el)+S(vib)+S(rot)+S(trans))
     S(el)   - electronic entropy
     S(vib)  - vibrational entropy
     S(rot)  - rotational entropy
     S(trans)- translational entropy
The entropies will be listed as multiplied by the temperature to get
units of energy

Electronic entropy                ...      0.00065446 Eh      0.41 kcal/mol
Vibrational entropy               ...      0.01502036 Eh      9.43 kcal/mol
Rotational entropy                ...      0.01537489 Eh      9.65 kcal/mol
Translational entropy             ...      0.02007617 Eh     12.60 kcal/mol
-----------------------------------------------------------------------
Final entropy term                ...      0.05112588 Eh     32.08 kcal/mol

In case the symmetry of your molecule has not been determined correctly
or in case you have a reason to use a different symmetry number we print 
out the resulting rotational entropy values for sn=1,12:

 non-linear molecules -----------------------------------
|  sn= 1 | S(rot)=       0.01537489 Eh      9.65 kcal/mol|
|  sn= 2 | S(rot)=       0.01472044 Eh      9.24 kcal/mol|
|  sn= 3 | S(rot)=       0.01433761 Eh      9.00 kcal/mol|
|  sn= 4 | S(rot)=       0.01406598 Eh      8.83 kcal/mol|
|  sn= 5 | S(rot)=       0.01385529 Eh      8.69 kcal/mol|
|  sn= 6 | S(rot)=       0.01368315 Eh      8.59 kcal/mol|
|  sn= 7 | S(rot)=       0.01353760 Eh      8.49 kcal/mol|
|  sn= 8 | S(rot)=       0.01341153 Eh      8.42 kcal/mol|
|  sn= 9 | S(rot)=       0.01330032 Eh      8.35 kcal/mol|
|  sn=10 | S(rot)=       0.01320084 Eh      8.28 kcal/mol|
|  sn=11 | S(rot)=       0.01311085 Eh      8.23 kcal/mol|
|  sn=12 | S(rot)=       0.01302869 Eh      8.18 kcal/mol|
 linear molecules ---------------------------------------
|  Dinfh | S(rot)=       0.00965639 Eh      6.06 kcal/mol|
|  Cinfv | S(rot)=       0.01031085 Eh      6.47 kcal/mol|
 --------------------------------------------------------


-------------------
GIBBS FREE ENERGY
-------------------

The Gibbs free energy is G = H - T*S

Total enthalpy                    ...   -840.75422515 Eh 
Total entropy correction          ...     -0.05112588 Eh    -32.08 kcal/mol
-----------------------------------------------------------------------
Final Gibbs free energy         ...   -840.80535103 Eh

For completeness - the Gibbs free energy minus the electronic energy
G-E(el)                           ...      0.04937391 Eh     30.98 kcal/mol


Maximum memory used throughout the entire PROP-calculation: 44.3 MB

--------------------------------
SUGGESTED CITATIONS FOR THIS RUN
--------------------------------

Below you find a list of papers that are relevant to this ORCA run
We neither can nor want to force you to cite these papers, but we appreciate if you do
You receive ORCA, which is the product of decades of hard work by many enthusiastic individuals, for free
The only thing we kindly ask in return is that you cite our papers,
We deeply appreciate it, if you show your appreciation for ORCA by not just citing the generic ORCA reference.

Please note that relegating all ORCA citations to the supporting information does *not* help us.
SI sections are not indexed - citations you put there will not count into any citation statistics
But we need these citations in order to attract the funding resources that allow us to do what we are doing

Therefore, if you are a happy ORCA user, please consider citing a few of the papers listed below in the main body of your paper

In addition to the list printed below, the program has created the file C:\ORCA_6.0.0\TEMP\ORCA_Temp\orca.bibtex that contains the list in bibtex format
You can import this file easily into all common literature databanks and citation aid programs


List of essential papers. We consider these as the minimum necessary citations

  1. Neese,F.
     Software update: the ORCA program system, version 5.0
     WIRES Comput. Molec. Sci., 2022 12(1)e1606
     doi.org/10.1002/wcms.1606

List of papers to cite with high priority. The work reported in these papers was absolutely
necessary for this run to complete.
Our perspective: the developers of density functionals and basis sets usually get cited in chemistry papers
Good! But without the algorithms to do something with them, the functionals or basis sets would not do anything.
Hence, in our opinion, the algorithm design and method developments papers are equally worthy of getting cited

  1. Bykov,D.; Petrenko,T.; Izsak,R.; Kossmann,S.; Becker,U.; Valeev,E.; Neese,F.
     Efficient implementation of the analytic second derivatives of Hartree-Fock and hybrid DFT energies: a detailed analysis of different approximations
     Molec. Phys., 2015 113 1961-1977
     doi.org/10.1080/00268976.2015.1025114
  2. Garcia-Rates,M.; Neese,F.
     Efficient implementation of the analytical second derivatives of hartree-fock and hybrid DFT energies within the framework of the conductor-like polarizable continuum model
     J. Comput. Chem., 2019 40 1816-1828
     doi.org/10.1002/jcc.25833
  3. Garcia-Rates,M.; Neese,F.
     Effect of the Solute Cavity on the Solvation Energy and its Derivatives within the Framework of the Gaussian Charge Scheme
     J. Comput. Chem., 2020 41 922-939
     doi.org/10.1002/jcc.26139
  4. Helmich-Paris,B.
     A trust-region augmented Hessian implementation for restricted and unrestricted Hartree–Fock and Kohn–Sham methods
     J. Chem. Phys., 2021 154 164104
     doi.org/10.1063/5.0040798
  5. Neese,F.
     The SHARK Integral Generation and Digestion System
     J. Comp. Chem., 2022  1-16
     doi.org/10.1002/jcc.26942

List of suggested additional citations. These are papers that are important in the 'surrounding' of 
of this run, or papers that preceded the highly important papers. If you like your results we are grateful for a citation.

  1. Neese,F.
     The ORCA program system
     WIRES Comput. Molec. Sci., 2012 2(1)73-78
     doi.org/10.1002/wcms.81
  2. Neese,F.
     Software update: the ORCA program system, version 4.0
     WIRES Comput. Molec. Sci., 2018 8(1)1-6
     doi.org/10.1002/wcms.1327
  3. Neese,F.; Wennmohs,F.; Becker,U.; Riplinger,C.
     The ORCA quantum chemistry program package
     J. Chem. Phys., 2020 152 Art. No. L224108
     doi.org/10.1063/5.0004608

List of optional additional citations

  1. Neese,F.
     Approximate second-order SCF convergence for spin unrestricted wavefunctions
     Chem. Phys. Lett., 2000 325(1-3)93-98
     doi.org/10.1016/s0009-2614(00)00662-x

Timings for individual modules:

Sum of individual times          ...     5250.146 sec (=  87.502 min)
Startup calculation              ...       35.826 sec (=   0.597 min)   0.7 %
SCF iterations                   ...     1858.970 sec (=  30.983 min)  35.4 %
Property integrals               ...      133.793 sec (=   2.230 min)   2.5 %
SCF Response                     ...     2851.448 sec (=  47.524 min)  54.3 %
Property calculations            ...       94.509 sec (=   1.575 min)   1.8 %
SCF Gradient evaluation          ...      275.022 sec (=   4.584 min)   5.2 %
Geometry relaxation              ...        0.578 sec (=   0.010 min)   0.0 %
                             ****ORCA TERMINATED NORMALLY****
TOTAL RUN TIME: 0 days 1 hours 27 minutes 32 seconds 489 msec
